LAMMPS (11 Aug 2017)
units		   real
atom_style	  full
boundary		p p p
dielectric	  1
special_bonds   lj/coul 0.0 0.0 1.0

pair_style	  lj/charmm/coul/long/opt 9 10.00000
bond_style      harmonic
angle_style     harmonic
dihedral_style  none
improper_style  none
kspace_style	pppm 1e-05

read_data	   data.watbox.spc
  orthogonal box = (0 0 0) to (18.7743 18.7743 18.7743)
  1 by 1 by 1 MPI processor grid
  reading atoms ...
  648 atoms
  scanning bonds ...
  2 = max bonds/atom
  scanning angles ...
  1 = max angles/atom
  reading bonds ...
  432 bonds
  reading angles ...
  216 angles
  2 = max # of 1-2 neighbors
  1 = max # of 1-3 neighbors
  2 = max # of special neighbors

pair_modify	 mix geometric
neighbor		2.0 multi
neigh_modify	every 2 delay 4 check yes
thermo_style	multi
thermo_modify		line multi format float %14.6f
variable		input index in.watbox.spc
variable		sname index watbox.spc

print                          .
.
print ==========================================
==========================================
print "500 steps CG Minimization"
500 steps CG Minimization
print ==========================================
==========================================
print                          .
.

dump            1 all atom 25 ${sname}.min.lammpstrj
dump            1 all atom 25 watbox.spc.min.lammpstrj
dump_modify     1 image yes scale yes
thermo          10
min_style       sd
minimize        1.0e-4 1.0e-4 500 5000
WARNING: Using 'neigh_modify every 1 delay 0 check yes' setting during minimization (../min.cpp:168)
PPPM initialization ...
WARNING: Using 12-bit tables for long-range coulomb (../kspace.cpp:321)
  G vector (1/distance) = 0.303518
  grid = 16 16 16
  stencil order = 5
  estimated absolute RMS force accuracy = 0.00333115
  estimated relative force accuracy = 1.00317e-05
  using double precision FFTs
  3d grid and FFT values/proc = 12167 4096
Neighbor list info ...
  update every 1 steps, delay 0 steps, check yes
  max neighbors/atom: 2000, page size: 100000
  master list distance cutoff = 12
  ghost atom cutoff = 12
  binsize = 6, bins = 4 4 4
  1 neighbor lists, perpetual/occasional/extra = 1 0 0
  (1) pair lj/charmm/coul/long/opt, perpetual
      attributes: half, newton on
      pair build: half/multi/newton
      stencil: half/multi/3d/newton
      bin: standard
Per MPI rank memory allocation (min/avg/max) = 10.84 | 10.84 | 10.84 Mbytes
---------------- Step        0 ----- CPU =      0.0000 (sec) ----------------
TotEng   =    3892.219372 KinEng   =       0.000000 Temp     =       0.000000 
PotEng   =    3892.219372 E_bond   =    4376.861009 E_angle  =    1612.186725 
E_dihed  =       0.000000 E_impro  =       0.000000 E_vdwl   =     287.133842 
E_coul   =   10840.447594 E_long   =  -13224.409798 Press    =  694815.677773 
---------------- Step       10 ----- CPU =      0.1933 (sec) ----------------
TotEng   =   -2299.945120 KinEng   =       0.000000 Temp     =       0.000000 
PotEng   =   -2299.945120 E_bond   =       9.312232 E_angle  =       2.710076 
E_dihed  =       0.000000 E_impro  =       0.000000 E_vdwl   =     283.600414 
E_coul   =   10629.423374 E_long   =  -13224.991215 Press    =  -13465.879102 
---------------- Step       20 ----- CPU =      0.3198 (sec) ----------------
TotEng   =   -2320.967547 KinEng   =       0.000000 Temp     =       0.000000 
PotEng   =   -2320.967547 E_bond   =       8.594241 E_angle  =       2.833970 
E_dihed  =       0.000000 E_impro  =       0.000000 E_vdwl   =     279.845345 
E_coul   =   10613.590469 E_long   =  -13225.831572 Press    =   -6651.554927 
---------------- Step       30 ----- CPU =      0.4185 (sec) ----------------
TotEng   =   -2338.510792 KinEng   =       0.000000 Temp     =       0.000000 
PotEng   =   -2338.510792 E_bond   =       8.104060 E_angle  =       2.922824 
E_dihed  =       0.000000 E_impro  =       0.000000 E_vdwl   =     277.966259 
E_coul   =   10598.877914 E_long   =  -13226.381848 Press    =   -7406.328331 
---------------- Step       40 ----- CPU =      0.5168 (sec) ----------------
TotEng   =   -2352.203108 KinEng   =       0.000000 Temp     =       0.000000 
PotEng   =   -2352.203108 E_bond   =       7.733985 E_angle  =       2.936253 
E_dihed  =       0.000000 E_impro  =       0.000000 E_vdwl   =     276.690147 
E_coul   =   10587.212518 E_long   =  -13226.776011 Press    =   -7617.183800 
---------------- Step       50 ----- CPU =      0.6154 (sec) ----------------
TotEng   =   -2363.704100 KinEng   =       0.000000 Temp     =       0.000000 
PotEng   =   -2363.704100 E_bond   =       7.514698 E_angle  =       2.947176 
E_dihed  =       0.000000 E_impro  =       0.000000 E_vdwl   =     275.749841 
E_coul   =   10577.165684 E_long   =  -13227.081499 Press    =   -7792.200996 
---------------- Step       60 ----- CPU =      0.7134 (sec) ----------------
TotEng   =   -2373.778118 KinEng   =       0.000000 Temp     =       0.000000 
PotEng   =   -2373.778118 E_bond   =       7.375367 E_angle  =       2.956403 
E_dihed  =       0.000000 E_impro  =       0.000000 E_vdwl   =     275.026431 
E_coul   =   10568.193373 E_long   =  -13227.329691 Press    =   -7943.609072 
---------------- Step       70 ----- CPU =      0.8105 (sec) ----------------
TotEng   =   -2382.834187 KinEng   =       0.000000 Temp     =       0.000000 
PotEng   =   -2382.834187 E_bond   =       7.283637 E_angle  =       2.964366 
E_dihed  =       0.000000 E_impro  =       0.000000 E_vdwl   =     274.456245 
E_coul   =   10559.999098 E_long   =  -13227.537532 Press    =   -8078.155852 
---------------- Step       80 ----- CPU =      0.9078 (sec) ----------------
TotEng   =   -2391.108824 KinEng   =       0.000000 Temp     =       0.000000 
PotEng   =   -2391.108824 E_bond   =       7.222561 E_angle  =       2.971342 
E_dihed  =       0.000000 E_impro  =       0.000000 E_vdwl   =     274.000992 
E_coul   =   10552.411560 E_long   =  -13227.715280 Press    =   -8199.568891 
---------------- Step       90 ----- CPU =      1.0058 (sec) ----------------
TotEng   =   -2398.758295 KinEng   =       0.000000 Temp     =       0.000000 
PotEng   =   -2398.758295 E_bond   =       7.182298 E_angle  =       2.977518 
E_dihed  =       0.000000 E_impro  =       0.000000 E_vdwl   =     273.635581 
E_coul   =   10545.316000 E_long   =  -13227.869691 Press    =   -8310.514771 
---------------- Step      100 ----- CPU =      1.1039 (sec) ----------------
TotEng   =   -2405.887690 KinEng   =       0.000000 Temp     =       0.000000 
PotEng   =   -2405.887690 E_bond   =       7.156701 E_angle  =       2.983034 
E_dihed  =       0.000000 E_impro  =       0.000000 E_vdwl   =     273.342519 
E_coul   =   10538.635555 E_long   =  -13228.005500 Press    =   -8412.807405 
---------------- Step      110 ----- CPU =      1.2015 (sec) ----------------
TotEng   =   -2412.571389 KinEng   =       0.000000 Temp     =       0.000000 
PotEng   =   -2412.571389 E_bond   =       7.141701 E_angle  =       2.987985 
E_dihed  =       0.000000 E_impro  =       0.000000 E_vdwl   =     273.109045 
E_coul   =   10532.316082 E_long   =  -13228.126202 Press    =   -8507.490307 
---------------- Step      120 ----- CPU =      1.2984 (sec) ----------------
TotEng   =   -2418.875198 KinEng   =       0.000000 Temp     =       0.000000 
PotEng   =   -2418.875198 E_bond   =       7.134648 E_angle  =       2.992459 
E_dihed  =       0.000000 E_impro  =       0.000000 E_vdwl   =     272.925480 
E_coul   =   10526.306680 E_long   =  -13228.234464 Press    =   -8596.094402 
---------------- Step      130 ----- CPU =      1.3961 (sec) ----------------
TotEng   =   -2424.846249 KinEng   =       0.000000 Temp     =       0.000000 
PotEng   =   -2424.846249 E_bond   =       7.134329 E_angle  =       2.996518 
E_dihed  =       0.000000 E_impro  =       0.000000 E_vdwl   =     272.784201 
E_coul   =   10520.571127 E_long   =  -13228.332424 Press    =   -8679.154636 
---------------- Step      140 ----- CPU =      1.4936 (sec) ----------------
TotEng   =   -2430.525644 KinEng   =       0.000000 Temp     =       0.000000 
PotEng   =   -2430.525644 E_bond   =       7.138849 E_angle  =       3.000226 
E_dihed  =       0.000000 E_impro  =       0.000000 E_vdwl   =     272.679625 
E_coul   =   10515.077427 E_long   =  -13228.421772 Press    =   -8757.307093 
---------------- Step      150 ----- CPU =      1.5921 (sec) ----------------
TotEng   =   -2435.954579 KinEng   =       0.000000 Temp     =       0.000000 
PotEng   =   -2435.954579 E_bond   =       7.146190 E_angle  =       3.003618 
E_dihed  =       0.000000 E_impro  =       0.000000 E_vdwl   =     272.607557 
E_coul   =   10509.791897 E_long   =  -13228.503841 Press    =   -8831.415949 
---------------- Step      160 ----- CPU =      1.6905 (sec) ----------------
TotEng   =   -2441.158833 KinEng   =       0.000000 Temp     =       0.000000 
PotEng   =   -2441.158833 E_bond   =       7.155093 E_angle  =       3.006741 
E_dihed  =       0.000000 E_impro  =       0.000000 E_vdwl   =     272.564721 
E_coul   =   10504.694317 E_long   =  -13228.579705 Press    =   -8901.727477 
---------------- Step      170 ----- CPU =      1.7893 (sec) ----------------
TotEng   =   -2446.161490 KinEng   =       0.000000 Temp     =       0.000000 
PotEng   =   -2446.161490 E_bond   =       7.164254 E_angle  =       3.009617 
E_dihed  =       0.000000 E_impro  =       0.000000 E_vdwl   =     272.548674 
E_coul   =   10499.766169 E_long   =  -13228.650204 Press    =   -8968.473977 
---------------- Step      180 ----- CPU =      1.8874 (sec) ----------------
TotEng   =   -2450.986558 KinEng   =       0.000000 Temp     =       0.000000 
PotEng   =   -2450.986558 E_bond   =       7.173862 E_angle  =       3.012287 
E_dihed  =       0.000000 E_impro  =       0.000000 E_vdwl   =     272.557197 
E_coul   =   10494.986156 E_long   =  -13228.716060 Press    =   -9032.335373 
---------------- Step      190 ----- CPU =      1.9850 (sec) ----------------
TotEng   =   -2455.651692 KinEng   =       0.000000 Temp     =       0.000000 
PotEng   =   -2455.651692 E_bond   =       7.183543 E_angle  =       3.014755 
E_dihed  =       0.000000 E_impro  =       0.000000 E_vdwl   =     272.588728 
E_coul   =   10490.339136 E_long   =  -13228.777854 Press    =   -9093.492567 
---------------- Step      200 ----- CPU =      2.0835 (sec) ----------------
TotEng   =   -2460.168857 KinEng   =       0.000000 Temp     =       0.000000 
PotEng   =   -2460.168857 E_bond   =       7.193010 E_angle  =       3.017052 
E_dihed  =       0.000000 E_impro  =       0.000000 E_vdwl   =     272.642021 
E_coul   =   10485.815118 E_long   =  -13228.836058 Press    =   -9151.973706 
---------------- Step      210 ----- CPU =      2.1816 (sec) ----------------
TotEng   =   -2464.552325 KinEng   =       0.000000 Temp     =       0.000000 
PotEng   =   -2464.552325 E_bond   =       7.202035 E_angle  =       3.019192 
E_dihed  =       0.000000 E_impro  =       0.000000 E_vdwl   =     272.716130 
E_coul   =   10481.401375 E_long   =  -13228.891058 Press    =   -9208.149568 
---------------- Step      220 ----- CPU =      2.2789 (sec) ----------------
TotEng   =   -2468.812575 KinEng   =       0.000000 Temp     =       0.000000 
PotEng   =   -2468.812575 E_bond   =       7.210443 E_angle  =       3.021192 
E_dihed  =       0.000000 E_impro  =       0.000000 E_vdwl   =     272.810315 
E_coul   =   10477.088641 E_long   =  -13228.943165 Press    =   -9262.115472 
---------------- Step      230 ----- CPU =      2.3778 (sec) ----------------
TotEng   =   -2472.953180 KinEng   =       0.000000 Temp     =       0.000000 
PotEng   =   -2472.953180 E_bond   =       7.218150 E_angle  =       3.023066 
E_dihed  =       0.000000 E_impro  =       0.000000 E_vdwl   =     272.923966 
E_coul   =   10472.874269 E_long   =  -13228.992632 Press    =   -9313.832332 
---------------- Step      240 ----- CPU =      2.4755 (sec) ----------------
TotEng   =   -2476.984701 KinEng   =       0.000000 Temp     =       0.000000 
PotEng   =   -2476.984701 E_bond   =       7.225042 E_angle  =       3.024823 
E_dihed  =       0.000000 E_impro  =       0.000000 E_vdwl   =     273.056569 
E_coul   =   10468.748528 E_long   =  -13229.039663 Press    =   -9363.532959 
---------------- Step      250 ----- CPU =      2.5735 (sec) ----------------
TotEng   =   -2480.914792 KinEng   =       0.000000 Temp     =       0.000000 
PotEng   =   -2480.914792 E_bond   =       7.231109 E_angle  =       3.026461 
E_dihed  =       0.000000 E_impro  =       0.000000 E_vdwl   =     273.207624 
E_coul   =   10464.704433 E_long   =  -13229.084419 Press    =   -9411.551207 
---------------- Step      260 ----- CPU =      2.6729 (sec) ----------------
TotEng   =   -2484.740993 KinEng   =       0.000000 Temp     =       0.000000 
PotEng   =   -2484.740993 E_bond   =       7.236348 E_angle  =       3.028006 
E_dihed  =       0.000000 E_impro  =       0.000000 E_vdwl   =     273.376665 
E_coul   =   10460.745029 E_long   =  -13229.127040 Press    =   -9457.543359 
---------------- Step      270 ----- CPU =      2.7710 (sec) ----------------
TotEng   =   -2488.471304 KinEng   =       0.000000 Temp     =       0.000000 
PotEng   =   -2488.471304 E_bond   =       7.240794 E_angle  =       3.029454 
E_dihed  =       0.000000 E_impro  =       0.000000 E_vdwl   =     273.563221 
E_coul   =   10456.862867 E_long   =  -13229.167640 Press    =   -9501.865247 
---------------- Step      280 ----- CPU =      2.8687 (sec) ----------------
TotEng   =   -2492.101435 KinEng   =       0.000000 Temp     =       0.000000 
PotEng   =   -2492.101435 E_bond   =       7.244514 E_angle  =       3.030813 
E_dihed  =       0.000000 E_impro  =       0.000000 E_vdwl   =     273.766760 
E_coul   =   10453.062789 E_long   =  -13229.206311 Press    =   -9544.179711 
---------------- Step      290 ----- CPU =      2.9661 (sec) ----------------
TotEng   =   -2495.640477 KinEng   =       0.000000 Temp     =       0.000000 
PotEng   =   -2495.640477 E_bond   =       7.247584 E_angle  =       3.032097 
E_dihed  =       0.000000 E_impro  =       0.000000 E_vdwl   =     273.986717 
E_coul   =   10449.336262 E_long   =  -13229.243139 Press    =   -9584.962529 
---------------- Step      300 ----- CPU =      3.0631 (sec) ----------------
TotEng   =   -2499.087047 KinEng   =       0.000000 Temp     =       0.000000 
PotEng   =   -2499.087047 E_bond   =       7.250075 E_angle  =       3.033304 
E_dihed  =       0.000000 E_impro  =       0.000000 E_vdwl   =     274.222469 
E_coul   =   10445.685298 E_long   =  -13229.278193 Press    =   -9624.088317 
---------------- Step      310 ----- CPU =      3.1605 (sec) ----------------
TotEng   =   -2502.442965 KinEng   =       0.000000 Temp     =       0.000000 
PotEng   =   -2502.442965 E_bond   =       7.252117 E_angle  =       3.034443 
E_dihed  =       0.000000 E_impro  =       0.000000 E_vdwl   =     274.473352 
E_coul   =   10442.108660 E_long   =  -13229.311537 Press    =   -9661.681261 
---------------- Step      320 ----- CPU =      3.2575 (sec) ----------------
TotEng   =   -2505.703464 KinEng   =       0.000000 Temp     =       0.000000 
PotEng   =   -2505.703464 E_bond   =       7.253802 E_angle  =       3.035520 
E_dihed  =       0.000000 E_impro  =       0.000000 E_vdwl   =     274.738690 
E_coul   =   10438.611757 E_long   =  -13229.343234 Press    =   -9697.241142 
---------------- Step      330 ----- CPU =      3.3558 (sec) ----------------
TotEng   =   -2508.874980 KinEng   =       0.000000 Temp     =       0.000000 
PotEng   =   -2508.874980 E_bond   =       7.255258 E_angle  =       3.036546 
E_dihed  =       0.000000 E_impro  =       0.000000 E_vdwl   =     275.017769 
E_coul   =   10435.188792 E_long   =  -13229.373345 Press    =   -9731.237846 
---------------- Step      340 ----- CPU =      3.4533 (sec) ----------------
TotEng   =   -2511.959601 KinEng   =       0.000000 Temp     =       0.000000 
PotEng   =   -2511.959601 E_bond   =       7.256554 E_angle  =       3.037519 
E_dihed  =       0.000000 E_impro  =       0.000000 E_vdwl   =     275.309848 
E_coul   =   10431.838409 E_long   =  -13229.401930 Press    =   -9763.732926 
---------------- Step      350 ----- CPU =      3.5510 (sec) ----------------
TotEng   =   -2514.957169 KinEng   =       0.000000 Temp     =       0.000000 
PotEng   =   -2514.957169 E_bond   =       7.257797 E_angle  =       3.038443 
E_dihed  =       0.000000 E_impro  =       0.000000 E_vdwl   =     275.614185 
E_coul   =   10428.561453 E_long   =  -13229.429047 Press    =   -9794.615709 
---------------- Step      360 ----- CPU =      3.6492 (sec) ----------------
TotEng   =   -2517.867593 KinEng   =       0.000000 Temp     =       0.000000 
PotEng   =   -2517.867593 E_bond   =       7.259061 E_angle  =       3.039326 
E_dihed  =       0.000000 E_impro  =       0.000000 E_vdwl   =     275.930056 
E_coul   =   10425.358715 E_long   =  -13229.454751 Press    =   -9823.808589 
---------------- Step      370 ----- CPU =      3.7468 (sec) ----------------
TotEng   =   -2520.700381 KinEng   =       0.000000 Temp     =       0.000000 
PotEng   =   -2520.700381 E_bond   =       7.260410 E_angle  =       3.040170 
E_dihed  =       0.000000 E_impro  =       0.000000 E_vdwl   =     276.256751 
E_coul   =   10422.221389 E_long   =  -13229.479102 Press    =   -9851.862681 
---------------- Step      380 ----- CPU =      3.8450 (sec) ----------------
TotEng   =   -2523.453046 KinEng   =       0.000000 Temp     =       0.000000 
PotEng   =   -2523.453046 E_bond   =       7.261761 E_angle  =       3.040987 
E_dihed  =       0.000000 E_impro  =       0.000000 E_vdwl   =     276.593575 
E_coul   =   10419.152776 E_long   =  -13229.502146 Press    =   -9878.489202 
---------------- Step      390 ----- CPU =      3.9415 (sec) ----------------
TotEng   =   -2526.126449 KinEng   =       0.000000 Temp     =       0.000000 
PotEng   =   -2526.126449 E_bond   =       7.262887 E_angle  =       3.041769 
E_dihed  =       0.000000 E_impro  =       0.000000 E_vdwl   =     276.939634 
E_coul   =   10416.153182 E_long   =  -13229.523921 Press    =   -9903.788209 
---------------- Step      400 ----- CPU =      4.0396 (sec) ----------------
TotEng   =   -2528.721226 KinEng   =       0.000000 Temp     =       0.000000 
PotEng   =   -2528.721226 E_bond   =       7.263869 E_angle  =       3.042523 
E_dihed  =       0.000000 E_impro  =       0.000000 E_vdwl   =     277.293941 
E_coul   =   10413.222909 E_long   =  -13229.544469 Press    =   -9927.758675 
---------------- Step      404 ----- CPU =      4.0849 (sec) ----------------
TotEng   =   -2529.735962 KinEng   =       0.000000 Temp     =       0.000000 
PotEng   =   -2529.735962 E_bond   =       7.264237 E_angle  =       3.042820 
E_dihed  =       0.000000 E_impro  =       0.000000 E_vdwl   =     277.437754 
E_coul   =   10412.071581 E_long   =  -13229.552354 Press    =   -9936.881129 
Loop time of 4.08495 on 1 procs for 404 steps with 648 atoms

100.0% CPU use with 1 MPI tasks x no OpenMP threads

Minimization stats:
  Stopping criterion = energy tolerance
  Energy initial, next-to-last, final = 
         3892.21937236     -2529.48495848     -2529.73596172
  Force two-norm initial, final = 11785.1 98.6201
  Force max component initial, final = 526.629 16.4465
  Final line search alpha, max atom move = 0.0173474 0.285304
  Iterations, force evaluations = 404 826

MPI task timing breakdown:
Section |  min time  |  avg time  |  max time  |%varavg| %total
---------------------------------------------------------------
Pair    | 3.312      | 3.312      | 3.312      |   0.0 | 81.08
Bond    | 0.017648   | 0.017648   | 0.017648   |   0.0 |  0.43
Kspace  | 0.70935    | 0.70935    | 0.70935    |   0.0 | 17.36
Neigh   | 0          | 0          | 0          |   0.0 |  0.00
Comm    | 0.023927   | 0.023927   | 0.023927   |   0.0 |  0.59
Output  | 0.0093632  | 0.0093632  | 0.0093632  |   0.0 |  0.23
Modify  | 0          | 0          | 0          |   0.0 |  0.00
Other   |            | 0.01263    |            |       |  0.31

Nlocal:    648 ave 648 max 648 min
Histogram: 1 0 0 0 0 0 0 0 0 0
Nghost:    7011 ave 7011 max 7011 min
Histogram: 1 0 0 0 0 0 0 0 0 0
Neighs:    229281 ave 229281 max 229281 min
Histogram: 1 0 0 0 0 0 0 0 0 0

Total # of neighbors = 229281
Ave neighs/atom = 353.829
Ave special neighs/atom = 2
Neighbor list builds = 0
Dangerous builds = 0
min_style       cg
minimize        1.0e-4 1.0e-4 500 5000
WARNING: Using 'neigh_modify every 1 delay 0 check yes' setting during minimization (../min.cpp:168)
PPPM initialization ...
WARNING: Using 12-bit tables for long-range coulomb (../kspace.cpp:321)
  G vector (1/distance) = 0.303518
  grid = 16 16 16
  stencil order = 5
  estimated absolute RMS force accuracy = 0.00333115
  estimated relative force accuracy = 1.00317e-05
  using double precision FFTs
  3d grid and FFT values/proc = 12167 4096
Per MPI rank memory allocation (min/avg/max) = 10.84 | 10.84 | 10.84 Mbytes
---------------- Step      404 ----- CPU =      0.0000 (sec) ----------------
TotEng   =   -2529.735962 KinEng   =       0.000000 Temp     =       0.000000 
PotEng   =   -2529.735962 E_bond   =       7.264237 E_angle  =       3.042820 
E_dihed  =       0.000000 E_impro  =       0.000000 E_vdwl   =     277.437754 
E_coul   =   10412.071581 E_long   =  -13229.552354 Press    =   -9936.881129 
---------------- Step      410 ----- CPU =      0.0493 (sec) ----------------
TotEng   =   -2603.530790 KinEng   =       0.000000 Temp     =       0.000000 
PotEng   =   -2603.530790 E_bond   =      11.926642 E_angle  =       2.502902 
E_dihed  =       0.000000 E_impro  =       0.000000 E_vdwl   =     319.585673 
E_coul   =   10292.212402 E_long   =  -13229.758409 Press    =  -16610.212446 
---------------- Step      412 ----- CPU =      0.0747 (sec) ----------------
TotEng   =   -2605.288145 KinEng   =       0.000000 Temp     =       0.000000 
PotEng   =   -2605.288145 E_bond   =       6.875905 E_angle  =       3.256808 
E_dihed  =       0.000000 E_impro  =       0.000000 E_vdwl   =     319.273881 
E_coul   =   10295.074691 E_long   =  -13229.769430 Press    =   -8030.267117 
Loop time of 0.074764 on 1 procs for 8 steps with 648 atoms

100.0% CPU use with 1 MPI tasks x no OpenMP threads

Minimization stats:
  Stopping criterion = energy tolerance
  Energy initial, next-to-last, final = 
        -2529.73596172     -2605.09564343     -2605.28814542
  Force two-norm initial, final = 98.6201 78.7947
  Force max component initial, final = 16.4465 11.2536
  Final line search alpha, max atom move = 0.0142565 0.160437
  Iterations, force evaluations = 8 14

MPI task timing breakdown:
Section |  min time  |  avg time  |  max time  |%varavg| %total
---------------------------------------------------------------
Pair    | 0.060163   | 0.060163   | 0.060163   |   0.0 | 80.47
Bond    | 0.00032592 | 0.00032592 | 0.00032592 |   0.0 |  0.44
Kspace  | 0.013017   | 0.013017   | 0.013017   |   0.0 | 17.41
Neigh   | 0          | 0          | 0          |   0.0 |  0.00
Comm    | 0.00043702 | 0.00043702 | 0.00043702 |   0.0 |  0.58
Output  | 2.3127e-05 | 2.3127e-05 | 2.3127e-05 |   0.0 |  0.03
Modify  | 0          | 0          | 0          |   0.0 |  0.00
Other   |            | 0.0007977  |            |       |  1.07

Nlocal:    648 ave 648 max 648 min
Histogram: 1 0 0 0 0 0 0 0 0 0
Nghost:    7009 ave 7009 max 7009 min
Histogram: 1 0 0 0 0 0 0 0 0 0
Neighs:    229280 ave 229280 max 229280 min
Histogram: 1 0 0 0 0 0 0 0 0 0

Total # of neighbors = 229280
Ave neighs/atom = 353.827
Ave special neighs/atom = 2
Neighbor list builds = 0
Dangerous builds = 0
#now minimize the entire system
minimize        1.0e-4 1.0e-4 500 5000
WARNING: Using 'neigh_modify every 1 delay 0 check yes' setting during minimization (../min.cpp:168)
PPPM initialization ...
WARNING: Using 12-bit tables for long-range coulomb (../kspace.cpp:321)
  G vector (1/distance) = 0.303518
  grid = 16 16 16
  stencil order = 5
  estimated absolute RMS force accuracy = 0.00333115
  estimated relative force accuracy = 1.00317e-05
  using double precision FFTs
  3d grid and FFT values/proc = 12167 4096
Per MPI rank memory allocation (min/avg/max) = 10.84 | 10.84 | 10.84 Mbytes
---------------- Step      412 ----- CPU =      0.0000 (sec) ----------------
TotEng   =   -2605.288145 KinEng   =       0.000000 Temp     =       0.000000 
PotEng   =   -2605.288145 E_bond   =       6.875905 E_angle  =       3.256808 
E_dihed  =       0.000000 E_impro  =       0.000000 E_vdwl   =     319.273881 
E_coul   =   10295.074691 E_long   =  -13229.769430 Press    =   -8030.267117 
---------------- Step      413 ----- CPU =      0.0157 (sec) ----------------
TotEng   =   -2605.486558 KinEng   =       0.000000 Temp     =       0.000000 
PotEng   =   -2605.486558 E_bond   =       7.709977 E_angle  =       3.346440 
E_dihed  =       0.000000 E_impro  =       0.000000 E_vdwl   =     319.160215 
E_coul   =   10294.077687 E_long   =  -13229.780878 Press    =   -9682.085343 
Loop time of 0.0156829 on 1 procs for 1 steps with 648 atoms

100.0% CPU use with 1 MPI tasks x no OpenMP threads

Minimization stats:
  Stopping criterion = energy tolerance
  Energy initial, next-to-last, final = 
        -2605.28814542     -2605.28814542     -2605.48655849
  Force two-norm initial, final = 78.7947 58.5134
  Force max component initial, final = 11.2536 6.71793
  Final line search alpha, max atom move = 0.00888601 0.0596956
  Iterations, force evaluations = 1 2

MPI task timing breakdown:
Section |  min time  |  avg time  |  max time  |%varavg| %total
---------------------------------------------------------------
Pair    | 0.012273   | 0.012273   | 0.012273   |   0.0 | 78.26
Bond    | 6.628e-05  | 6.628e-05  | 6.628e-05  |   0.0 |  0.42
Kspace  | 0.0026059  | 0.0026059  | 0.0026059  |   0.0 | 16.62
Neigh   | 0          | 0          | 0          |   0.0 |  0.00
Comm    | 8.4877e-05 | 8.4877e-05 | 8.4877e-05 |   0.0 |  0.54
Output  | 0          | 0          | 0          |   0.0 |  0.00
Modify  | 0          | 0          | 0          |   0.0 |  0.00
Other   |            | 0.000653   |            |       |  4.16

Nlocal:    648 ave 648 max 648 min
Histogram: 1 0 0 0 0 0 0 0 0 0
Nghost:    6995 ave 6995 max 6995 min
Histogram: 1 0 0 0 0 0 0 0 0 0
Neighs:    229119 ave 229119 max 229119 min
Histogram: 1 0 0 0 0 0 0 0 0 0

Total # of neighbors = 229119
Ave neighs/atom = 353.579
Ave special neighs/atom = 2
Neighbor list builds = 0
Dangerous builds = 0
undump          1


print                          .
.
print =====================================
=====================================
print "NVT dynamics to heat system"
NVT dynamics to heat system
print =====================================
=====================================
print            .
.

reset_timestep  0
timestep        1.0
fix             shakeH all shake 0.0001 20 500 m 1.008 a 1
  0 = # of size 2 clusters
  0 = # of size 3 clusters
  0 = # of size 4 clusters
  216 = # of frozen angles
velocity        all create 0.0 12345678 dist uniform
thermo          100
thermo_style    multi
WARNING: New thermo_style command, previous thermo_modify settings will be lost (../output.cpp:705)
timestep        1.0
dump            1 all custom 1000 ${sname}.heat.lammpstrj id type xu yu zu vx vy vz
dump            1 all custom 1000 watbox.spc.heat.lammpstrj id type xu yu zu vx vy vz
fix             4 all nvt temp 1.0 300.0 100.0
run             10000
PPPM initialization ...
WARNING: Using 12-bit tables for long-range coulomb (../kspace.cpp:321)
  G vector (1/distance) = 0.303518
  grid = 16 16 16
  stencil order = 5
  estimated absolute RMS force accuracy = 0.00333115
  estimated relative force accuracy = 1.00317e-05
  using double precision FFTs
  3d grid and FFT values/proc = 12167 4096
SHAKE stats (type/ave/delta) on step 0
  1 1.0017 0.00325967
  1 109.256 0.360371
Per MPI rank memory allocation (min/avg/max) = 10.84 | 10.84 | 10.84 Mbytes
---------------- Step        0 ----- CPU =      0.0000 (sec) ----------------
TotEng   =     -2616.5430 KinEng   =         0.0000 Temp     =         0.0000 
PotEng   =     -2616.5430 E_bond   =         0.0000 E_angle  =         0.0000 
E_dihed  =         0.0000 E_impro  =         0.0000 E_vdwl   =       319.1602 
E_coul   =     10294.0777 E_long   =    -13229.7809 Press    =     -9584.0331 
---------------- Step      100 ----- CPU =      0.3889 (sec) ----------------
TotEng   =     -2653.1157 KinEng   =        47.2317 Temp     =        36.7639 
PotEng   =     -2700.3474 E_bond   =         0.0000 E_angle  =         0.0000 
E_dihed  =         0.0000 E_impro  =         0.0000 E_vdwl   =       405.9768 
E_coul   =     10123.5028 E_long   =    -13229.8269 Press    =     -7828.0659 
---------------- Step      200 ----- CPU =      0.7891 (sec) ----------------
TotEng   =     -2722.2788 KinEng   =        35.4346 Temp     =        27.5814 
PotEng   =     -2757.7134 E_bond   =         0.0000 E_angle  =         0.0000 
E_dihed  =         0.0000 E_impro  =         0.0000 E_vdwl   =       465.1989 
E_coul   =     10006.6906 E_long   =    -13229.6028 Press    =     -6670.4334 
---------------- Step      300 ----- CPU =      1.1883 (sec) ----------------
TotEng   =     -2761.7401 KinEng   =        26.2212 Temp     =        20.4099 
PotEng   =     -2787.9613 E_bond   =         0.0000 E_angle  =         0.0000 
E_dihed  =         0.0000 E_impro  =         0.0000 E_vdwl   =       474.5241 
E_coul   =      9967.0254 E_long   =    -13229.5108 Press    =     -6771.1932 
---------------- Step      400 ----- CPU =      1.5952 (sec) ----------------
TotEng   =     -2783.2542 KinEng   =        22.2307 Temp     =        17.3038 
PotEng   =     -2805.4849 E_bond   =         0.0000 E_angle  =         0.0000 
E_dihed  =         0.0000 E_impro  =         0.0000 E_vdwl   =       501.9511 
E_coul   =      9922.1785 E_long   =    -13229.6145 Press    =     -6109.5107 
SHAKE stats (type/ave/delta) on step 500
  1 1 1.17069e-06
  1 109.47 7.80823e-05
---------------- Step      500 ----- CPU =      1.9975 (sec) ----------------
TotEng   =     -2797.3884 KinEng   =        21.1277 Temp     =        16.4453 
PotEng   =     -2818.5162 E_bond   =         0.0000 E_angle  =         0.0000 
E_dihed  =         0.0000 E_impro  =         0.0000 E_vdwl   =       501.2333 
E_coul   =      9909.5892 E_long   =    -13229.3386 Press    =     -6221.5132 
---------------- Step      600 ----- CPU =      2.4023 (sec) ----------------
TotEng   =     -2807.4755 KinEng   =        22.5982 Temp     =        17.5899 
PotEng   =     -2830.0737 E_bond   =         0.0000 E_angle  =         0.0000 
E_dihed  =         0.0000 E_impro  =         0.0000 E_vdwl   =       526.4635 
E_coul   =      9872.7323 E_long   =    -13229.2695 Press    =     -5530.3897 
---------------- Step      700 ----- CPU =      2.8061 (sec) ----------------
TotEng   =     -2812.9899 KinEng   =        24.1141 Temp     =        18.7698 
PotEng   =     -2837.1040 E_bond   =         0.0000 E_angle  =         0.0000 
E_dihed  =         0.0000 E_impro  =         0.0000 E_vdwl   =       549.0049 
E_coul   =      9843.1988 E_long   =    -13229.3078 Press    =     -4902.4787 
---------------- Step      800 ----- CPU =      3.2065 (sec) ----------------
TotEng   =     -2812.7513 KinEng   =        28.9845 Temp     =        22.5608 
PotEng   =     -2841.7357 E_bond   =         0.0000 E_angle  =         0.0000 
E_dihed  =         0.0000 E_impro  =         0.0000 E_vdwl   =       552.7711 
E_coul   =      9835.7191 E_long   =    -13230.2260 Press    =     -4791.0751 
---------------- Step      900 ----- CPU =      3.6139 (sec) ----------------
TotEng   =     -2806.5537 KinEng   =        32.1122 Temp     =        24.9953 
PotEng   =     -2838.6659 E_bond   =         0.0000 E_angle  =         0.0000 
E_dihed  =         0.0000 E_impro  =         0.0000 E_vdwl   =       562.8617 
E_coul   =      9829.0265 E_long   =    -13230.5541 Press    =     -4394.6018 
SHAKE stats (type/ave/delta) on step 1000
  1 1 1.02379e-06
  1 109.47 8.03831e-05
---------------- Step     1000 ----- CPU =      4.0223 (sec) ----------------
TotEng   =     -2793.7676 KinEng   =        39.9028 Temp     =        31.0593 
PotEng   =     -2833.6704 E_bond   =         0.0000 E_angle  =         0.0000 
E_dihed  =         0.0000 E_impro  =         0.0000 E_vdwl   =       572.5119 
E_coul   =      9824.2562 E_long   =    -13230.4385 Press    =     -3913.0706 
---------------- Step     1100 ----- CPU =      4.4182 (sec) ----------------
TotEng   =     -2780.5720 KinEng   =        44.7446 Temp     =        34.8280 
PotEng   =     -2825.3165 E_bond   =         0.0000 E_angle  =         0.0000 
E_dihed  =         0.0000 E_impro  =         0.0000 E_vdwl   =       587.7864 
E_coul   =      9817.4727 E_long   =    -13230.5757 Press    =     -3192.4371 
---------------- Step     1200 ----- CPU =      4.8135 (sec) ----------------
TotEng   =     -2771.4794 KinEng   =        47.8275 Temp     =        37.2277 
PotEng   =     -2819.3069 E_bond   =         0.0000 E_angle  =         0.0000 
E_dihed  =         0.0000 E_impro  =         0.0000 E_vdwl   =       604.7978 
E_coul   =      9805.9598 E_long   =    -13230.0645 Press    =     -2564.4520 
---------------- Step     1300 ----- CPU =      5.2185 (sec) ----------------
TotEng   =     -2765.5899 KinEng   =        52.7615 Temp     =        41.0682 
PotEng   =     -2818.3514 E_bond   =         0.0000 E_angle  =         0.0000 
E_dihed  =         0.0000 E_impro  =         0.0000 E_vdwl   =       576.3630 
E_coul   =      9835.5311 E_long   =    -13230.2455 Press    =     -3486.0962 
---------------- Step     1400 ----- CPU =      5.6270 (sec) ----------------
TotEng   =     -2761.5196 KinEng   =        57.6398 Temp     =        44.8653 
PotEng   =     -2819.1594 E_bond   =         0.0000 E_angle  =         0.0000 
E_dihed  =         0.0000 E_impro  =         0.0000 E_vdwl   =       569.9130 
E_coul   =      9841.3808 E_long   =    -13230.4533 Press    =     -3665.2669 
SHAKE stats (type/ave/delta) on step 1500
  1 1 1.08841e-06
  1 109.47 8.50867e-05
---------------- Step     1500 ----- CPU =      6.0333 (sec) ----------------
TotEng   =     -2760.4301 KinEng   =        56.9554 Temp     =        44.3326 
PotEng   =     -2817.3855 E_bond   =         0.0000 E_angle  =         0.0000 
E_dihed  =         0.0000 E_impro  =         0.0000 E_vdwl   =       575.5078 
E_coul   =      9837.3156 E_long   =    -13230.2089 Press    =     -3493.6703 
---------------- Step     1600 ----- CPU =      6.4389 (sec) ----------------
TotEng   =     -2758.5356 KinEng   =        65.6101 Temp     =        51.0692 
PotEng   =     -2824.1457 E_bond   =         0.0000 E_angle  =         0.0000 
E_dihed  =         0.0000 E_impro  =         0.0000 E_vdwl   =       555.7645 
E_coul   =      9850.0684 E_long   =    -13229.9787 Press    =     -4205.6400 
---------------- Step     1700 ----- CPU =      6.8450 (sec) ----------------
TotEng   =     -2758.9049 KinEng   =        60.7833 Temp     =        47.3122 
PotEng   =     -2819.6883 E_bond   =         0.0000 E_angle  =         0.0000 
E_dihed  =         0.0000 E_impro  =         0.0000 E_vdwl   =       556.7105 
E_coul   =      9854.4304 E_long   =    -13230.8291 Press    =     -4198.8356 
---------------- Step     1800 ----- CPU =      7.2460 (sec) ----------------
TotEng   =     -2750.8564 KinEng   =        66.9605 Temp     =        52.1203 
PotEng   =     -2817.8169 E_bond   =         0.0000 E_angle  =         0.0000 
E_dihed  =         0.0000 E_impro  =         0.0000 E_vdwl   =       576.3182 
E_coul   =      9835.7516 E_long   =    -13229.8867 Press    =     -3518.4351 
---------------- Step     1900 ----- CPU =      7.6571 (sec) ----------------
TotEng   =     -2735.1463 KinEng   =        77.6475 Temp     =        60.4388 
PotEng   =     -2812.7938 E_bond   =         0.0000 E_angle  =         0.0000 
E_dihed  =         0.0000 E_impro  =         0.0000 E_vdwl   =       562.1595 
E_coul   =      9855.6851 E_long   =    -13230.6384 Press    =     -3761.6062 
SHAKE stats (type/ave/delta) on step 2000
  1 1 9.74468e-07
  1 109.47 8.50998e-05
---------------- Step     2000 ----- CPU =      8.0673 (sec) ----------------
TotEng   =     -2722.5162 KinEng   =        79.8444 Temp     =        62.1488 
PotEng   =     -2802.3606 E_bond   =         0.0000 E_angle  =         0.0000 
E_dihed  =         0.0000 E_impro  =         0.0000 E_vdwl   =       561.3955 
E_coul   =      9866.7575 E_long   =    -13230.5136 Press    =     -3676.9206 
---------------- Step     2100 ----- CPU =      8.4776 (sec) ----------------
TotEng   =     -2716.4679 KinEng   =        85.9769 Temp     =        66.9222 
PotEng   =     -2802.4448 E_bond   =         0.0000 E_angle  =         0.0000 
E_dihed  =         0.0000 E_impro  =         0.0000 E_vdwl   =       561.1837 
E_coul   =      9866.7689 E_long   =    -13230.3974 Press    =     -3631.1844 
---------------- Step     2200 ----- CPU =      8.8806 (sec) ----------------
TotEng   =     -2721.0379 KinEng   =        81.5009 Temp     =        63.4382 
PotEng   =     -2802.5389 E_bond   =         0.0000 E_angle  =         0.0000 
E_dihed  =         0.0000 E_impro  =         0.0000 E_vdwl   =       569.1883 
E_coul   =      9858.4480 E_long   =    -13230.1751 Press    =     -3419.4823 
---------------- Step     2300 ----- CPU =      9.2857 (sec) ----------------
TotEng   =     -2721.7477 KinEng   =        87.4824 Temp     =        68.0940 
PotEng   =     -2809.2301 E_bond   =         0.0000 E_angle  =         0.0000 
E_dihed  =         0.0000 E_impro  =         0.0000 E_vdwl   =       557.8434 
E_coul   =      9863.4586 E_long   =    -13230.5321 Press    =     -3889.9029 
---------------- Step     2400 ----- CPU =      9.6925 (sec) ----------------
TotEng   =     -2717.1753 KinEng   =        94.6476 Temp     =        73.6712 
PotEng   =     -2811.8229 E_bond   =         0.0000 E_angle  =         0.0000 
E_dihed  =         0.0000 E_impro  =         0.0000 E_vdwl   =       550.8180 
E_coul   =      9867.8856 E_long   =    -13230.5265 Press    =     -4090.4137 
SHAKE stats (type/ave/delta) on step 2500
  1 1 8.94683e-07
  1 109.47 8.17375e-05
---------------- Step     2500 ----- CPU =     10.0998 (sec) ----------------
TotEng   =     -2708.6494 KinEng   =        94.2041 Temp     =        73.3260 
PotEng   =     -2802.8535 E_bond   =         0.0000 E_angle  =         0.0000 
E_dihed  =         0.0000 E_impro  =         0.0000 E_vdwl   =       553.5702 
E_coul   =      9873.7956 E_long   =    -13230.2193 Press    =     -3813.0857 
---------------- Step     2600 ----- CPU =     10.5072 (sec) ----------------
TotEng   =     -2694.4940 KinEng   =       105.2200 Temp     =        81.9005 
PotEng   =     -2799.7139 E_bond   =         0.0000 E_angle  =         0.0000 
E_dihed  =         0.0000 E_impro  =         0.0000 E_vdwl   =       557.9695 
E_coul   =      9873.6019 E_long   =    -13231.2854 Press    =     -3603.8151 
---------------- Step     2700 ----- CPU =     10.9123 (sec) ----------------
TotEng   =     -2681.9447 KinEng   =       104.1819 Temp     =        81.0925 
PotEng   =     -2786.1266 E_bond   =         0.0000 E_angle  =         0.0000 
E_dihed  =         0.0000 E_impro  =         0.0000 E_vdwl   =       566.2168 
E_coul   =      9878.1819 E_long   =    -13230.5253 Press    =     -3212.8125 
---------------- Step     2800 ----- CPU =     11.3221 (sec) ----------------
TotEng   =     -2668.5374 KinEng   =       117.7213 Temp     =        91.6312 
PotEng   =     -2786.2587 E_bond   =         0.0000 E_angle  =         0.0000 
E_dihed  =         0.0000 E_impro  =         0.0000 E_vdwl   =       590.6145 
E_coul   =      9853.1975 E_long   =    -13230.0707 Press    =     -2212.9428 
---------------- Step     2900 ----- CPU =     11.7304 (sec) ----------------
TotEng   =     -2666.8360 KinEng   =       124.1285 Temp     =        96.6184 
PotEng   =     -2790.9645 E_bond   =         0.0000 E_angle  =         0.0000 
E_dihed  =         0.0000 E_impro  =         0.0000 E_vdwl   =       568.6908 
E_coul   =      9871.0536 E_long   =    -13230.7089 Press    =     -2972.5097 
SHAKE stats (type/ave/delta) on step 3000
  1 1 1.315e-06
  1 109.47 8.59864e-05
---------------- Step     3000 ----- CPU =     12.1431 (sec) ----------------
TotEng   =     -2678.1487 KinEng   =       111.7558 Temp     =        86.9879 
PotEng   =     -2789.9045 E_bond   =         0.0000 E_angle  =         0.0000 
E_dihed  =         0.0000 E_impro  =         0.0000 E_vdwl   =       577.6458 
E_coul   =      9862.8144 E_long   =    -13230.3647 Press    =     -2776.6289 
---------------- Step     3100 ----- CPU =     12.5515 (sec) ----------------
TotEng   =     -2679.4308 KinEng   =       107.8052 Temp     =        83.9128 
PotEng   =     -2787.2360 E_bond   =         0.0000 E_angle  =         0.0000 
E_dihed  =         0.0000 E_impro  =         0.0000 E_vdwl   =       545.2332 
E_coul   =      9898.5499 E_long   =    -13231.0191 Press    =     -3822.6451 
---------------- Step     3200 ----- CPU =     12.9565 (sec) ----------------
TotEng   =     -2663.3442 KinEng   =       123.9984 Temp     =        96.5171 
PotEng   =     -2787.3425 E_bond   =         0.0000 E_angle  =         0.0000 
E_dihed  =         0.0000 E_impro  =         0.0000 E_vdwl   =       574.5986 
E_coul   =      9868.9461 E_long   =    -13230.8872 Press    =     -2788.3389 
---------------- Step     3300 ----- CPU =     13.3604 (sec) ----------------
TotEng   =     -2645.3954 KinEng   =       125.0959 Temp     =        97.3714 
PotEng   =     -2770.4913 E_bond   =         0.0000 E_angle  =         0.0000 
E_dihed  =         0.0000 E_impro  =         0.0000 E_vdwl   =       554.0581 
E_coul   =      9905.4774 E_long   =    -13230.0269 Press    =     -3183.1260 
---------------- Step     3400 ----- CPU =     13.7691 (sec) ----------------
TotEng   =     -2625.9139 KinEng   =       141.2398 Temp     =       109.9374 
PotEng   =     -2767.1537 E_bond   =         0.0000 E_angle  =         0.0000 
E_dihed  =         0.0000 E_impro  =         0.0000 E_vdwl   =       554.1908 
E_coul   =      9909.2903 E_long   =    -13230.6348 Press    =     -3113.6386 
SHAKE stats (type/ave/delta) on step 3500
  1 1 8.92415e-07
  1 109.47 7.93253e-05
---------------- Step     3500 ----- CPU =     14.1773 (sec) ----------------
TotEng   =     -2620.4314 KinEng   =       134.9660 Temp     =       105.0541 
PotEng   =     -2755.3974 E_bond   =         0.0000 E_angle  =         0.0000 
E_dihed  =         0.0000 E_impro  =         0.0000 E_vdwl   =       526.2711 
E_coul   =      9948.5231 E_long   =    -13230.1917 Press    =     -3805.8227 
---------------- Step     3600 ----- CPU =     14.5890 (sec) ----------------
TotEng   =     -2617.2207 KinEng   =       149.5936 Temp     =       116.4398 
PotEng   =     -2766.8142 E_bond   =         0.0000 E_angle  =         0.0000 
E_dihed  =         0.0000 E_impro  =         0.0000 E_vdwl   =       543.4702 
E_coul   =      9921.0918 E_long   =    -13231.3762 Press    =     -3387.2169 
---------------- Step     3700 ----- CPU =     15.0014 (sec) ----------------
TotEng   =     -2624.2502 KinEng   =       139.9729 Temp     =       108.9513 
PotEng   =     -2764.2231 E_bond   =         0.0000 E_angle  =         0.0000 
E_dihed  =         0.0000 E_impro  =         0.0000 E_vdwl   =       565.7035 
E_coul   =      9901.4640 E_long   =    -13231.3906 Press    =     -2685.2710 
---------------- Step     3800 ----- CPU =     15.4093 (sec) ----------------
TotEng   =     -2627.4315 KinEng   =       135.5862 Temp     =       105.5368 
PotEng   =     -2763.0177 E_bond   =         0.0000 E_angle  =         0.0000 
E_dihed  =         0.0000 E_impro  =         0.0000 E_vdwl   =       551.4678 
E_coul   =      9915.8397 E_long   =    -13230.3252 Press    =     -3308.6239 
---------------- Step     3900 ----- CPU =     15.8163 (sec) ----------------
TotEng   =     -2614.5789 KinEng   =       140.2511 Temp     =       109.1678 
PotEng   =     -2754.8299 E_bond   =         0.0000 E_angle  =         0.0000 
E_dihed  =         0.0000 E_impro  =         0.0000 E_vdwl   =       589.3086 
E_coul   =      9885.5215 E_long   =    -13229.6600 Press    =     -1822.8251 
SHAKE stats (type/ave/delta) on step 4000
  1 1 1.16665e-06
  1 109.47 0.000102429
---------------- Step     4000 ----- CPU =     16.2261 (sec) ----------------
TotEng   =     -2590.1640 KinEng   =       163.6747 Temp     =       127.4001 
PotEng   =     -2753.8386 E_bond   =         0.0000 E_angle  =         0.0000 
E_dihed  =         0.0000 E_impro  =         0.0000 E_vdwl   =       532.3957 
E_coul   =      9943.7893 E_long   =    -13230.0237 Press    =     -3540.7445 
---------------- Step     4100 ----- CPU =     16.6289 (sec) ----------------
TotEng   =     -2570.3958 KinEng   =       162.0213 Temp     =       126.1132 
PotEng   =     -2732.4171 E_bond   =         0.0000 E_angle  =         0.0000 
E_dihed  =         0.0000 E_impro  =         0.0000 E_vdwl   =       567.8624 
E_coul   =      9929.2963 E_long   =    -13229.5758 Press    =     -2087.3926 
---------------- Step     4200 ----- CPU =     17.0312 (sec) ----------------
TotEng   =     -2560.6201 KinEng   =       173.4774 Temp     =       135.0303 
PotEng   =     -2734.0974 E_bond   =         0.0000 E_angle  =         0.0000 
E_dihed  =         0.0000 E_impro  =         0.0000 E_vdwl   =       583.5666 
E_coul   =      9912.1834 E_long   =    -13229.8475 Press    =     -1560.7816 
---------------- Step     4300 ----- CPU =     17.4430 (sec) ----------------
TotEng   =     -2566.4015 KinEng   =       163.1244 Temp     =       126.9719 
PotEng   =     -2729.5259 E_bond   =         0.0000 E_angle  =         0.0000 
E_dihed  =         0.0000 E_impro  =         0.0000 E_vdwl   =       569.2628 
E_coul   =      9930.9198 E_long   =    -13229.7086 Press    =     -2089.2237 
---------------- Step     4400 ----- CPU =     17.8573 (sec) ----------------
TotEng   =     -2576.2238 KinEng   =       164.8256 Temp     =       128.2960 
PotEng   =     -2741.0494 E_bond   =         0.0000 E_angle  =         0.0000 
E_dihed  =         0.0000 E_impro  =         0.0000 E_vdwl   =       575.6052 
E_coul   =      9912.4369 E_long   =    -13229.0914 Press    =     -2048.6431 
SHAKE stats (type/ave/delta) on step 4500
  1 1 1.2306e-06
  1 109.47 0.000110336
---------------- Step     4500 ----- CPU =     18.2585 (sec) ----------------
TotEng   =     -2571.7108 KinEng   =       162.4988 Temp     =       126.4849 
PotEng   =     -2734.2097 E_bond   =         0.0000 E_angle  =         0.0000 
E_dihed  =         0.0000 E_impro  =         0.0000 E_vdwl   =       555.9740 
E_coul   =      9938.5511 E_long   =    -13228.7348 Press    =     -2652.1589 
---------------- Step     4600 ----- CPU =     18.6728 (sec) ----------------
TotEng   =     -2548.6967 KinEng   =       178.5974 Temp     =       139.0156 
PotEng   =     -2727.2941 E_bond   =         0.0000 E_angle  =         0.0000 
E_dihed  =         0.0000 E_impro  =         0.0000 E_vdwl   =       586.0004 
E_coul   =      9915.3326 E_long   =    -13228.6270 Press    =     -1521.9391 
---------------- Step     4700 ----- CPU =     19.0865 (sec) ----------------
TotEng   =     -2531.4813 KinEng   =       194.4794 Temp     =       151.3778 
PotEng   =     -2725.9608 E_bond   =         0.0000 E_angle  =         0.0000 
E_dihed  =         0.0000 E_impro  =         0.0000 E_vdwl   =       556.1957 
E_coul   =      9947.2434 E_long   =    -13229.3998 Press    =     -2320.6227 
---------------- Step     4800 ----- CPU =     19.4940 (sec) ----------------
TotEng   =     -2525.2945 KinEng   =       195.1612 Temp     =       151.9085 
PotEng   =     -2720.4558 E_bond   =         0.0000 E_angle  =         0.0000 
E_dihed  =         0.0000 E_impro  =         0.0000 E_vdwl   =       540.0120 
E_coul   =      9967.8456 E_long   =    -13228.3134 Press    =     -2841.0605 
---------------- Step     4900 ----- CPU =     19.9080 (sec) ----------------
TotEng   =     -2523.6944 KinEng   =       184.2350 Temp     =       143.4037 
PotEng   =     -2707.9294 E_bond   =         0.0000 E_angle  =         0.0000 
E_dihed  =         0.0000 E_impro  =         0.0000 E_vdwl   =       591.3617 
E_coul   =      9928.3106 E_long   =    -13227.6017 Press    =     -1124.0595 
SHAKE stats (type/ave/delta) on step 5000
  1 1 8.81386e-07
  1 109.47 8.99979e-05
---------------- Step     5000 ----- CPU =     20.3198 (sec) ----------------
TotEng   =     -2520.6684 KinEng   =       185.8741 Temp     =       144.6796 
PotEng   =     -2706.5425 E_bond   =         0.0000 E_angle  =         0.0000 
E_dihed  =         0.0000 E_impro  =         0.0000 E_vdwl   =       559.9586 
E_coul   =      9961.3682 E_long   =    -13227.8693 Press    =     -2004.5627 
---------------- Step     5100 ----- CPU =     20.7302 (sec) ----------------
TotEng   =     -2512.8127 KinEng   =       206.3943 Temp     =       160.6520 
PotEng   =     -2719.2069 E_bond   =         0.0000 E_angle  =         0.0000 
E_dihed  =         0.0000 E_impro  =         0.0000 E_vdwl   =       559.4213 
E_coul   =      9949.7919 E_long   =    -13228.4202 Press    =     -2153.3137 
---------------- Step     5200 ----- CPU =     21.1449 (sec) ----------------
TotEng   =     -2504.7786 KinEng   =       195.4899 Temp     =       152.1643 
PotEng   =     -2700.2685 E_bond   =         0.0000 E_angle  =         0.0000 
E_dihed  =         0.0000 E_impro  =         0.0000 E_vdwl   =       539.7344 
E_coul   =      9988.0982 E_long   =    -13228.1010 Press    =     -2541.3509 
---------------- Step     5300 ----- CPU =     21.5601 (sec) ----------------
TotEng   =     -2486.5761 KinEng   =       198.1438 Temp     =       154.2301 
PotEng   =     -2684.7200 E_bond   =         0.0000 E_angle  =         0.0000 
E_dihed  =         0.0000 E_impro  =         0.0000 E_vdwl   =       545.5481 
E_coul   =      9998.1299 E_long   =    -13228.3980 Press    =     -2158.4738 
---------------- Step     5400 ----- CPU =     21.9670 (sec) ----------------
TotEng   =     -2466.7624 KinEng   =       223.2412 Temp     =       173.7652 
PotEng   =     -2690.0037 E_bond   =         0.0000 E_angle  =         0.0000 
E_dihed  =         0.0000 E_impro  =         0.0000 E_vdwl   =       579.9659 
E_coul   =      9956.2063 E_long   =    -13226.1758 Press    =      -979.0589 
SHAKE stats (type/ave/delta) on step 5500
  1 1 1.00271e-06
  1 109.47 8.27487e-05
---------------- Step     5500 ----- CPU =     22.3869 (sec) ----------------
TotEng   =     -2466.5830 KinEng   =       207.1003 Temp     =       161.2015 
PotEng   =     -2673.6834 E_bond   =         0.0000 E_angle  =         0.0000 
E_dihed  =         0.0000 E_impro  =         0.0000 E_vdwl   =       514.3067 
E_coul   =     10040.9019 E_long   =    -13228.8919 Press    =     -3061.1249 
---------------- Step     5600 ----- CPU =     22.7964 (sec) ----------------
TotEng   =     -2460.5897 KinEng   =       216.9314 Temp     =       168.8538 
PotEng   =     -2677.5210 E_bond   =         0.0000 E_angle  =         0.0000 
E_dihed  =         0.0000 E_impro  =         0.0000 E_vdwl   =       551.8553 
E_coul   =      9997.7970 E_long   =    -13227.1733 Press    =     -1884.2789 
---------------- Step     5700 ----- CPU =     23.2131 (sec) ----------------
TotEng   =     -2457.6298 KinEng   =       218.6988 Temp     =       170.2295 
PotEng   =     -2676.3286 E_bond   =         0.0000 E_angle  =         0.0000 
E_dihed  =         0.0000 E_impro  =         0.0000 E_vdwl   =       569.1129 
E_coul   =      9981.0776 E_long   =    -13226.5191 Press    =     -1352.7267 
---------------- Step     5800 ----- CPU =     23.6242 (sec) ----------------
TotEng   =     -2459.3415 KinEng   =       208.0142 Temp     =       161.9129 
PotEng   =     -2667.3557 E_bond   =         0.0000 E_angle  =         0.0000 
E_dihed  =         0.0000 E_impro  =         0.0000 E_vdwl   =       542.1244 
E_coul   =     10020.3122 E_long   =    -13229.7923 Press    =     -1999.7700 
---------------- Step     5900 ----- CPU =     24.0362 (sec) ----------------
TotEng   =     -2443.1371 KinEng   =       233.4435 Temp     =       181.7064 
PotEng   =     -2676.5806 E_bond   =         0.0000 E_angle  =         0.0000 
E_dihed  =         0.0000 E_impro  =         0.0000 E_vdwl   =       562.3227 
E_coul   =      9990.8684 E_long   =    -13229.7717 Press    =     -1384.7943 
SHAKE stats (type/ave/delta) on step 6000
  1 1 9.61893e-07
  1 109.47 9.5974e-05
---------------- Step     6000 ----- CPU =     24.4503 (sec) ----------------
TotEng   =     -2422.6095 KinEng   =       241.7138 Temp     =       188.1437 
PotEng   =     -2664.3232 E_bond   =         0.0000 E_angle  =         0.0000 
E_dihed  =         0.0000 E_impro  =         0.0000 E_vdwl   =       575.0924 
E_coul   =      9990.8074 E_long   =    -13230.2230 Press    =      -708.7202 
---------------- Step     6100 ----- CPU =     24.8610 (sec) ----------------
TotEng   =     -2414.3051 KinEng   =       230.5141 Temp     =       179.4262 
PotEng   =     -2644.8192 E_bond   =         0.0000 E_angle  =         0.0000 
E_dihed  =         0.0000 E_impro  =         0.0000 E_vdwl   =       553.3714 
E_coul   =     10028.5745 E_long   =    -13226.7651 Press    =     -1129.3135 
---------------- Step     6200 ----- CPU =     25.2831 (sec) ----------------
TotEng   =     -2406.9458 KinEng   =       266.2979 Temp     =       207.2794 
PotEng   =     -2673.2437 E_bond   =         0.0000 E_angle  =         0.0000 
E_dihed  =         0.0000 E_impro  =         0.0000 E_vdwl   =       540.9263 
E_coul   =     10012.9336 E_long   =    -13227.1035 Press    =     -1928.1845 
---------------- Step     6300 ----- CPU =     25.7120 (sec) ----------------
TotEng   =     -2415.4892 KinEng   =       253.5102 Temp     =       197.3258 
PotEng   =     -2668.9994 E_bond   =         0.0000 E_angle  =         0.0000 
E_dihed  =         0.0000 E_impro  =         0.0000 E_vdwl   =       533.9379 
E_coul   =     10024.4950 E_long   =    -13227.4323 Press    =     -2179.5635 
---------------- Step     6400 ----- CPU =     26.1536 (sec) ----------------
TotEng   =     -2426.8338 KinEng   =       236.0748 Temp     =       183.7546 
PotEng   =     -2662.9087 E_bond   =         0.0000 E_angle  =         0.0000 
E_dihed  =         0.0000 E_impro  =         0.0000 E_vdwl   =       546.7314 
E_coul   =     10018.6608 E_long   =    -13228.3009 Press    =     -1801.2117 
SHAKE stats (type/ave/delta) on step 6500
  1 1 1.30299e-06
  1 109.47 0.000171524
---------------- Step     6500 ----- CPU =     26.5804 (sec) ----------------
TotEng   =     -2412.7036 KinEng   =       246.3996 Temp     =       191.7911 
PotEng   =     -2659.1032 E_bond   =         0.0000 E_angle  =         0.0000 
E_dihed  =         0.0000 E_impro  =         0.0000 E_vdwl   =       557.0840 
E_coul   =     10013.5382 E_long   =    -13229.7254 Press    =     -1220.9813 
---------------- Step     6600 ----- CPU =     26.9969 (sec) ----------------
TotEng   =     -2385.8229 KinEng   =       255.3572 Temp     =       198.7634 
PotEng   =     -2641.1800 E_bond   =         0.0000 E_angle  =         0.0000 
E_dihed  =         0.0000 E_impro  =         0.0000 E_vdwl   =       534.2811 
E_coul   =     10053.5924 E_long   =    -13229.0535 Press    =     -1602.9060 
---------------- Step     6700 ----- CPU =     27.4167 (sec) ----------------
TotEng   =     -2356.9909 KinEng   =       269.1780 Temp     =       209.5212 
PotEng   =     -2626.1689 E_bond   =         0.0000 E_angle  =         0.0000 
E_dihed  =         0.0000 E_impro  =         0.0000 E_vdwl   =       564.5785 
E_coul   =     10037.7652 E_long   =    -13228.5126 Press    =      -417.9201 
---------------- Step     6800 ----- CPU =     27.8398 (sec) ----------------
TotEng   =     -2351.9306 KinEng   =       285.8625 Temp     =       222.5080 
PotEng   =     -2637.7931 E_bond   =         0.0000 E_angle  =         0.0000 
E_dihed  =         0.0000 E_impro  =         0.0000 E_vdwl   =       571.3457 
E_coul   =     10019.5289 E_long   =    -13228.6677 Press    =      -473.1833 
---------------- Step     6900 ----- CPU =     28.2544 (sec) ----------------
TotEng   =     -2372.2636 KinEng   =       248.7173 Temp     =       193.5951 
PotEng   =     -2620.9809 E_bond   =         0.0000 E_angle  =         0.0000 
E_dihed  =         0.0000 E_impro  =         0.0000 E_vdwl   =       525.6432 
E_coul   =     10081.3698 E_long   =    -13227.9939 Press    =     -1725.6144 
SHAKE stats (type/ave/delta) on step 7000
  1 1 1.15935e-06
  1 109.47 8.09783e-05
---------------- Step     7000 ----- CPU =     28.6697 (sec) ----------------
TotEng   =     -2381.2934 KinEng   =       267.8390 Temp     =       208.4790 
PotEng   =     -2649.1324 E_bond   =         0.0000 E_angle  =         0.0000 
E_dihed  =         0.0000 E_impro  =         0.0000 E_vdwl   =       543.2630 
E_coul   =     10036.6047 E_long   =    -13229.0001 Press    =     -1451.8288 
---------------- Step     7100 ----- CPU =     29.0782 (sec) ----------------
TotEng   =     -2371.2182 KinEng   =       258.4301 Temp     =       201.1553 
PotEng   =     -2629.6482 E_bond   =         0.0000 E_angle  =         0.0000 
E_dihed  =         0.0000 E_impro  =         0.0000 E_vdwl   =       569.1450 
E_coul   =     10029.6239 E_long   =    -13228.4171 Press    =      -492.3193 
---------------- Step     7200 ----- CPU =     29.4938 (sec) ----------------
TotEng   =     -2333.2660 KinEng   =       282.6582 Temp     =       220.0138 
PotEng   =     -2615.9242 E_bond   =         0.0000 E_angle  =         0.0000 
E_dihed  =         0.0000 E_impro  =         0.0000 E_vdwl   =       579.6554 
E_coul   =     10033.2847 E_long   =    -13228.8643 Press    =       117.4815 
---------------- Step     7300 ----- CPU =     29.9167 (sec) ----------------
TotEng   =     -2300.1433 KinEng   =       289.4157 Temp     =       225.2737 
PotEng   =     -2589.5591 E_bond   =         0.0000 E_angle  =         0.0000 
E_dihed  =         0.0000 E_impro  =         0.0000 E_vdwl   =       537.4059 
E_coul   =     10099.9080 E_long   =    -13226.8729 Press    =      -804.3985 
---------------- Step     7400 ----- CPU =     30.3318 (sec) ----------------
TotEng   =     -2279.3036 KinEng   =       313.3250 Temp     =       243.8841 
PotEng   =     -2592.6286 E_bond   =         0.0000 E_angle  =         0.0000 
E_dihed  =         0.0000 E_impro  =         0.0000 E_vdwl   =       542.6450 
E_coul   =     10093.2057 E_long   =    -13228.4792 Press    =      -490.3129 
SHAKE stats (type/ave/delta) on step 7500
  1 1 1.69556e-06
  1 109.47 0.000134927
---------------- Step     7500 ----- CPU =     30.7525 (sec) ----------------
TotEng   =     -2298.7403 KinEng   =       284.4312 Temp     =       221.3939 
PotEng   =     -2583.1715 E_bond   =         0.0000 E_angle  =         0.0000 
E_dihed  =         0.0000 E_impro  =         0.0000 E_vdwl   =       547.2303 
E_coul   =     10098.0556 E_long   =    -13228.4574 Press    =      -466.4609 
---------------- Step     7600 ----- CPU =     31.1684 (sec) ----------------
TotEng   =     -2318.7792 KinEng   =       291.3905 Temp     =       226.8108 
PotEng   =     -2610.1696 E_bond   =         0.0000 E_angle  =         0.0000 
E_dihed  =         0.0000 E_impro  =         0.0000 E_vdwl   =       538.8324 
E_coul   =     10079.7479 E_long   =    -13228.7499 Press    =      -978.3787 
---------------- Step     7700 ----- CPU =     31.5924 (sec) ----------------
TotEng   =     -2325.3362 KinEng   =       270.1043 Temp     =       210.2422 
PotEng   =     -2595.4405 E_bond   =         0.0000 E_angle  =         0.0000 
E_dihed  =         0.0000 E_impro  =         0.0000 E_vdwl   =       534.6086 
E_coul   =     10098.3288 E_long   =    -13228.3779 Press    =     -1032.2458 
---------------- Step     7800 ----- CPU =     32.0090 (sec) ----------------
TotEng   =     -2308.3663 KinEng   =       273.3771 Temp     =       212.7896 
PotEng   =     -2581.7433 E_bond   =         0.0000 E_angle  =         0.0000 
E_dihed  =         0.0000 E_impro  =         0.0000 E_vdwl   =       528.8362 
E_coul   =     10116.4869 E_long   =    -13227.0664 Press    =     -1166.9924 
---------------- Step     7900 ----- CPU =     32.4249 (sec) ----------------
TotEng   =     -2266.6606 KinEng   =       303.2060 Temp     =       236.0077 
PotEng   =     -2569.8666 E_bond   =         0.0000 E_angle  =         0.0000 
E_dihed  =         0.0000 E_impro  =         0.0000 E_vdwl   =       499.7926 
E_coul   =     10157.9232 E_long   =    -13227.5824 Press    =     -1738.3915 
SHAKE stats (type/ave/delta) on step 8000
  1 1 1.2962e-06
  1 109.47 9.13415e-05
---------------- Step     8000 ----- CPU =     32.8469 (sec) ----------------
TotEng   =     -2228.2387 KinEng   =       324.2869 Temp     =       252.4165 
PotEng   =     -2552.5256 E_bond   =         0.0000 E_angle  =         0.0000 
E_dihed  =         0.0000 E_impro  =         0.0000 E_vdwl   =       543.1992 
E_coul   =     10132.3527 E_long   =    -13228.0775 Press    =        12.4092 
---------------- Step     8100 ----- CPU =     33.2585 (sec) ----------------
TotEng   =     -2227.1203 KinEng   =       335.7237 Temp     =       261.3187 
PotEng   =     -2562.8440 E_bond   =         0.0000 E_angle  =         0.0000 
E_dihed  =         0.0000 E_impro  =         0.0000 E_vdwl   =       514.3375 
E_coul   =     10150.2216 E_long   =    -13227.4031 Press    =     -1005.1947 
---------------- Step     8200 ----- CPU =     33.6779 (sec) ----------------
TotEng   =     -2243.0646 KinEng   =       311.7232 Temp     =       242.6373 
PotEng   =     -2554.7878 E_bond   =         0.0000 E_angle  =         0.0000 
E_dihed  =         0.0000 E_impro  =         0.0000 E_vdwl   =       528.1989 
E_coul   =     10144.9994 E_long   =    -13227.9861 Press    =      -725.1040 
---------------- Step     8300 ----- CPU =     34.1000 (sec) ----------------
TotEng   =     -2249.0033 KinEng   =       316.4281 Temp     =       246.2995 
PotEng   =     -2565.4314 E_bond   =         0.0000 E_angle  =         0.0000 
E_dihed  =         0.0000 E_impro  =         0.0000 E_vdwl   =       578.1758 
E_coul   =     10083.3770 E_long   =    -13226.9842 Press    =      1035.6257 
---------------- Step     8400 ----- CPU =     34.5176 (sec) ----------------
TotEng   =     -2252.4974 KinEng   =       303.7864 Temp     =       236.4595 
PotEng   =     -2556.2839 E_bond   =         0.0000 E_angle  =         0.0000 
E_dihed  =         0.0000 E_impro  =         0.0000 E_vdwl   =       506.7472 
E_coul   =     10164.8514 E_long   =    -13227.8824 Press    =     -1380.3699 
SHAKE stats (type/ave/delta) on step 8500
  1 1 1.40203e-06
  1 109.47 0.000180353
---------------- Step     8500 ----- CPU =     34.9359 (sec) ----------------
TotEng   =     -2234.0690 KinEng   =       326.4841 Temp     =       254.1268 
PotEng   =     -2560.5531 E_bond   =         0.0000 E_angle  =         0.0000 
E_dihed  =         0.0000 E_impro  =         0.0000 E_vdwl   =       525.0004 
E_coul   =     10141.1432 E_long   =    -13226.6966 Press    =      -778.6150 
---------------- Step     8600 ----- CPU =     35.3614 (sec) ----------------
TotEng   =     -2207.1301 KinEng   =       344.3399 Temp     =       268.0253 
PotEng   =     -2551.4700 E_bond   =         0.0000 E_angle  =         0.0000 
E_dihed  =         0.0000 E_impro  =         0.0000 E_vdwl   =       549.3927 
E_coul   =     10127.5935 E_long   =    -13228.4562 Press    =       364.9575 
---------------- Step     8700 ----- CPU =     35.7775 (sec) ----------------
TotEng   =     -2200.2899 KinEng   =       322.7985 Temp     =       251.2580 
PotEng   =     -2523.0884 E_bond   =         0.0000 E_angle  =         0.0000 
E_dihed  =         0.0000 E_impro  =         0.0000 E_vdwl   =       512.9107 
E_coul   =     10191.8651 E_long   =    -13227.8642 Press    =      -713.3723 
---------------- Step     8800 ----- CPU =     36.2030 (sec) ----------------
TotEng   =     -2177.3407 KinEng   =       333.7918 Temp     =       259.8149 
PotEng   =     -2511.1325 E_bond   =         0.0000 E_angle  =         0.0000 
E_dihed  =         0.0000 E_impro  =         0.0000 E_vdwl   =       494.7251 
E_coul   =     10221.3625 E_long   =    -13227.2201 Press    =     -1073.9488 
---------------- Step     8900 ----- CPU =     36.6280 (sec) ----------------
TotEng   =     -2142.9269 KinEng   =       352.8471 Temp     =       274.6470 
PotEng   =     -2495.7740 E_bond   =         0.0000 E_angle  =         0.0000 
E_dihed  =         0.0000 E_impro  =         0.0000 E_vdwl   =       530.1656 
E_coul   =     10201.2308 E_long   =    -13227.1704 Press    =       307.2922 
SHAKE stats (type/ave/delta) on step 9000
  1 1 1.15675e-06
  1 109.47 9.36328e-05
---------------- Step     9000 ----- CPU =     37.0537 (sec) ----------------
TotEng   =     -2123.4609 KinEng   =       360.2556 Temp     =       280.4137 
PotEng   =     -2483.7165 E_bond   =         0.0000 E_angle  =         0.0000 
E_dihed  =         0.0000 E_impro  =         0.0000 E_vdwl   =       499.0948 
E_coul   =     10244.7390 E_long   =    -13227.5503 Press    =      -234.8144 
---------------- Step     9100 ----- CPU =     37.4764 (sec) ----------------
TotEng   =     -2133.7094 KinEng   =       354.8901 Temp     =       276.2373 
PotEng   =     -2488.5995 E_bond   =         0.0000 E_angle  =         0.0000 
E_dihed  =         0.0000 E_impro  =         0.0000 E_vdwl   =       502.8170 
E_coul   =     10234.2710 E_long   =    -13225.6875 Press    =      -257.3209 
---------------- Step     9200 ----- CPU =     37.9045 (sec) ----------------
TotEng   =     -2156.0000 KinEng   =       341.0210 Temp     =       265.4420 
PotEng   =     -2497.0210 E_bond   =         0.0000 E_angle  =         0.0000 
E_dihed  =         0.0000 E_impro  =         0.0000 E_vdwl   =       522.2046 
E_coul   =     10208.0400 E_long   =    -13227.2657 Press    =       113.7597 
---------------- Step     9300 ----- CPU =     38.3335 (sec) ----------------
TotEng   =     -2148.7850 KinEng   =       347.4693 Temp     =       270.4611 
PotEng   =     -2496.2543 E_bond   =         0.0000 E_angle  =         0.0000 
E_dihed  =         0.0000 E_impro  =         0.0000 E_vdwl   =       489.7171 
E_coul   =     10240.7581 E_long   =    -13226.7295 Press    =      -937.9903 
---------------- Step     9400 ----- CPU =     38.7577 (sec) ----------------
TotEng   =     -2115.3919 KinEng   =       368.4363 Temp     =       286.7813 
PotEng   =     -2483.8283 E_bond   =         0.0000 E_angle  =         0.0000 
E_dihed  =         0.0000 E_impro  =         0.0000 E_vdwl   =       513.2210 
E_coul   =     10229.4676 E_long   =    -13226.5168 Press    =       -66.8576 
SHAKE stats (type/ave/delta) on step 9500
  1 1 1.34296e-06
  1 109.47 0.000114053
---------------- Step     9500 ----- CPU =     39.1881 (sec) ----------------
TotEng   =     -2085.4051 KinEng   =       360.8732 Temp     =       280.8944 
PotEng   =     -2446.2783 E_bond   =         0.0000 E_angle  =         0.0000 
E_dihed  =         0.0000 E_impro  =         0.0000 E_vdwl   =       461.7506 
E_coul   =     10317.8029 E_long   =    -13225.8319 Press    =     -1152.5524 
---------------- Step     9600 ----- CPU =     39.6136 (sec) ----------------
TotEng   =     -2059.6963 KinEng   =       375.8587 Temp     =       292.5587 
PotEng   =     -2435.5550 E_bond   =         0.0000 E_angle  =         0.0000 
E_dihed  =         0.0000 E_impro  =         0.0000 E_vdwl   =       505.9310 
E_coul   =     10285.3658 E_long   =    -13226.8519 Press    =       279.7632 
---------------- Step     9700 ----- CPU =     40.0439 (sec) ----------------
TotEng   =     -2055.3032 KinEng   =       391.5949 Temp     =       304.8073 
PotEng   =     -2446.8981 E_bond   =         0.0000 E_angle  =         0.0000 
E_dihed  =         0.0000 E_impro  =         0.0000 E_vdwl   =       482.3678 
E_coul   =     10296.9222 E_long   =    -13226.1882 Press    =      -627.1498 
---------------- Step     9800 ----- CPU =     40.4760 (sec) ----------------
TotEng   =     -2067.4134 KinEng   =       365.2094 Temp     =       284.2695 
PotEng   =     -2432.6228 E_bond   =         0.0000 E_angle  =         0.0000 
E_dihed  =         0.0000 E_impro  =         0.0000 E_vdwl   =       492.6868 
E_coul   =     10301.3930 E_long   =    -13226.7027 Press    =        91.5239 
---------------- Step     9900 ----- CPU =     40.9084 (sec) ----------------
TotEng   =     -2062.2182 KinEng   =       374.3406 Temp     =       291.3771 
PotEng   =     -2436.5588 E_bond   =         0.0000 E_angle  =         0.0000 
E_dihed  =         0.0000 E_impro  =         0.0000 E_vdwl   =       476.9379 
E_coul   =     10312.5724 E_long   =    -13226.0691 Press    =      -456.5752 
SHAKE stats (type/ave/delta) on step 10000
  1 1 1.5687e-06
  1 109.47 0.000139271
---------------- Step    10000 ----- CPU =     41.3361 (sec) ----------------
TotEng   =     -2029.2706 KinEng   =       406.6715 Temp     =       316.5426 
PotEng   =     -2435.9421 E_bond   =         0.0000 E_angle  =         0.0000 
E_dihed  =         0.0000 E_impro  =         0.0000 E_vdwl   =       502.1837 
E_coul   =     10287.4280 E_long   =    -13225.5538 Press    =       235.6134 
Loop time of 41.3361 on 1 procs for 10000 steps with 648 atoms

Performance: 20.902 ns/day, 1.148 hours/ns, 241.919 timesteps/s
100.0% CPU use with 1 MPI tasks x no OpenMP threads

MPI task timing breakdown:
Section |  min time  |  avg time  |  max time  |%varavg| %total
---------------------------------------------------------------
Pair    | 31.153     | 31.153     | 31.153     |   0.0 | 75.37
Bond    | 0.0021234  | 0.0021234  | 0.0021234  |   0.0 |  0.01
Kspace  | 8.3978     | 8.3978     | 8.3978     |   0.0 | 20.32
Neigh   | 0.93357    | 0.93357    | 0.93357    |   0.0 |  2.26
Comm    | 0.29852    | 0.29852    | 0.29852    |   0.0 |  0.72
Output  | 0.014529   | 0.014529   | 0.014529   |   0.0 |  0.04
Modify  | 0.45993    | 0.45993    | 0.45993    |   0.0 |  1.11
Other   |            | 0.07668    |            |       |  0.19

Nlocal:    648 ave 648 max 648 min
Histogram: 1 0 0 0 0 0 0 0 0 0
Nghost:    6950 ave 6950 max 6950 min
Histogram: 1 0 0 0 0 0 0 0 0 0
Neighs:    229415 ave 229415 max 229415 min
Histogram: 1 0 0 0 0 0 0 0 0 0

Total # of neighbors = 229415
Ave neighs/atom = 354.035
Ave special neighs/atom = 2
Neighbor list builds = 181
Dangerous builds = 0
unfix           4
undump          1

print                          .
.
print ================================================
================================================
print "NPT dynamics with an isotropic pressure of 1atm."
NPT dynamics with an isotropic pressure of 1atm.
print ================================================
================================================
print                       .
.

timestep        2.0
fix             2 all npt temp 300.0 300.0 100.0 iso 1.0 1.0 2000.0
thermo          100
thermo_style    multi
dump            1 all custom 5000 ${sname}.npt.lammps id type xu yu zu vx vy vz
dump            1 all custom 5000 watbox.spc.npt.lammps id type xu yu zu vx vy vz
run             100000 # run for 15 ns
PPPM initialization ...
WARNING: Using 12-bit tables for long-range coulomb (../kspace.cpp:321)
  G vector (1/distance) = 0.303518
  grid = 16 16 16
  stencil order = 5
  estimated absolute RMS force accuracy = 0.00333115
  estimated relative force accuracy = 1.00317e-05
  using double precision FFTs
  3d grid and FFT values/proc = 12167 4096
SHAKE stats (type/ave/delta) on step 10000
  1 1 1.5687e-06
  1 109.47 0.000139271
Per MPI rank memory allocation (min/avg/max) = 10.84 | 10.84 | 10.84 Mbytes
---------------- Step    10000 ----- CPU =      0.0000 (sec) ----------------
TotEng   =     -2029.2706 KinEng   =       406.6715 Temp     =       316.5426 
PotEng   =     -2435.9421 E_bond   =         0.0000 E_angle  =         0.0000 
E_dihed  =         0.0000 E_impro  =         0.0000 E_vdwl   =       502.1837 
E_coul   =     10287.4280 E_long   =    -13225.5538 Press    =       221.5007 
Volume   =      6617.5119 
---------------- Step    10100 ----- CPU =      0.4820 (sec) ----------------
TotEng   =     -2063.8754 KinEng   =       368.8030 Temp     =       287.0667 
PotEng   =     -2432.6783 E_bond   =         0.0000 E_angle  =         0.0000 
E_dihed  =         0.0000 E_impro  =         0.0000 E_vdwl   =       520.0464 
E_coul   =     10270.2807 E_long   =    -13223.0055 Press    =       685.2040 
Volume   =      6628.0119 
---------------- Step    10200 ----- CPU =      0.9719 (sec) ----------------
TotEng   =     -2086.2692 KinEng   =       374.4193 Temp     =       291.4383 
PotEng   =     -2460.6885 E_bond   =         0.0000 E_angle  =         0.0000 
E_dihed  =         0.0000 E_impro  =         0.0000 E_vdwl   =       487.0907 
E_coul   =     10279.3754 E_long   =    -13227.1546 Press    =      -598.5098 
Volume   =      6645.8208 
---------------- Step    10300 ----- CPU =      1.4629 (sec) ----------------
TotEng   =     -2033.0393 KinEng   =       381.1766 Temp     =       296.6980 
PotEng   =     -2414.2160 E_bond   =         0.0000 E_angle  =         0.0000 
E_dihed  =         0.0000 E_impro  =         0.0000 E_vdwl   =       482.5280 
E_coul   =     10328.1321 E_long   =    -13224.8761 Press    =       -14.8951 
Volume   =      6648.7785 
---------------- Step    10400 ----- CPU =      1.9647 (sec) ----------------
TotEng   =     -2004.7430 KinEng   =       380.8733 Temp     =       296.4619 
PotEng   =     -2385.6163 E_bond   =         0.0000 E_angle  =         0.0000 
E_dihed  =         0.0000 E_impro  =         0.0000 E_vdwl   =       504.2194 
E_coul   =     10334.8247 E_long   =    -13224.6604 Press    =       867.4287 
Volume   =      6643.8753 
SHAKE stats (type/ave/delta) on step 10500
  1 0.99999 3.50928e-06
  1 109.47 0.00035504
---------------- Step    10500 ----- CPU =      2.4592 (sec) ----------------
TotEng   =     -2021.0289 KinEng   =       370.1081 Temp     =       288.0826 
PotEng   =     -2391.1370 E_bond   =         0.0000 E_angle  =         0.0000 
E_dihed  =         0.0000 E_impro  =         0.0000 E_vdwl   =       489.1216 
E_coul   =     10341.7834 E_long   =    -13222.0420 Press    =       365.8537 
Volume   =      6639.7048 
---------------- Step    10600 ----- CPU =      2.9552 (sec) ----------------
TotEng   =     -2046.6051 KinEng   =       397.3234 Temp     =       309.2663 
PotEng   =     -2443.9285 E_bond   =         0.0000 E_angle  =         0.0000 
E_dihed  =         0.0000 E_impro  =         0.0000 E_vdwl   =       460.9783 
E_coul   =     10317.7215 E_long   =    -13222.6284 Press    =     -1089.5500 
Volume   =      6610.5754 
---------------- Step    10700 ----- CPU =      3.4509 (sec) ----------------
TotEng   =     -2106.6421 KinEng   =       366.6794 Temp     =       285.4138 
PotEng   =     -2473.3216 E_bond   =         0.0000 E_angle  =         0.0000 
E_dihed  =         0.0000 E_impro  =         0.0000 E_vdwl   =       504.1530 
E_coul   =     10250.0942 E_long   =    -13227.5688 Press    =        98.8763 
Volume   =      6556.5106 
---------------- Step    10800 ----- CPU =      3.9525 (sec) ----------------
TotEng   =     -2080.2170 KinEng   =       384.3148 Temp     =       299.1407 
PotEng   =     -2464.5318 E_bond   =         0.0000 E_angle  =         0.0000 
E_dihed  =         0.0000 E_impro  =         0.0000 E_vdwl   =       529.3567 
E_coul   =     10233.7542 E_long   =    -13227.6427 Press    =      1284.8070 
Volume   =      6498.9562 
---------------- Step    10900 ----- CPU =      4.4609 (sec) ----------------
TotEng   =     -2049.2954 KinEng   =       396.1740 Temp     =       308.3716 
PotEng   =     -2445.4694 E_bond   =         0.0000 E_angle  =         0.0000 
E_dihed  =         0.0000 E_impro  =         0.0000 E_vdwl   =       474.8745 
E_coul   =     10302.4031 E_long   =    -13222.7470 Press    =       -27.2670 
Volume   =      6469.4879 
SHAKE stats (type/ave/delta) on step 11000
  1 1 5.20489e-06
  1 109.47 0.000354369
---------------- Step    11000 ----- CPU =      4.9698 (sec) ----------------
TotEng   =     -2050.5853 KinEng   =       380.1821 Temp     =       295.9239 
PotEng   =     -2430.7674 E_bond   =         0.0000 E_angle  =         0.0000 
E_dihed  =         0.0000 E_impro  =         0.0000 E_vdwl   =       531.1057 
E_coul   =     10264.1251 E_long   =    -13225.9982 Press    =      1597.8975 
Volume   =      6462.7685 
---------------- Step    11100 ----- CPU =      5.4675 (sec) ----------------
TotEng   =     -2025.9043 KinEng   =       382.5778 Temp     =       297.7887 
PotEng   =     -2408.4820 E_bond   =         0.0000 E_angle  =         0.0000 
E_dihed  =         0.0000 E_impro  =         0.0000 E_vdwl   =       499.4959 
E_coul   =     10317.6060 E_long   =    -13225.5839 Press    =       857.7189 
Volume   =      6499.5291 
---------------- Step    11200 ----- CPU =      5.9653 (sec) ----------------
TotEng   =     -1989.1109 KinEng   =       381.7590 Temp     =       297.1514 
PotEng   =     -2370.8700 E_bond   =         0.0000 E_angle  =         0.0000 
E_dihed  =         0.0000 E_impro  =         0.0000 E_vdwl   =       464.4381 
E_coul   =     10389.9111 E_long   =    -13225.2191 Press    =       231.7795 
Volume   =      6582.9412 
---------------- Step    11300 ----- CPU =      6.4582 (sec) ----------------
TotEng   =     -1930.1669 KinEng   =       421.6123 Temp     =       328.1721 
PotEng   =     -2351.7792 E_bond   =         0.0000 E_angle  =         0.0000 
E_dihed  =         0.0000 E_impro  =         0.0000 E_vdwl   =       394.0284 
E_coul   =     10479.1846 E_long   =    -13224.9922 Press    =     -2080.7974 
Volume   =      6670.0111 
---------------- Step    11400 ----- CPU =      6.9568 (sec) ----------------
TotEng   =     -1957.8555 KinEng   =       408.1024 Temp     =       317.6563 
PotEng   =     -2365.9578 E_bond   =         0.0000 E_angle  =         0.0000 
E_dihed  =         0.0000 E_impro  =         0.0000 E_vdwl   =       424.6037 
E_coul   =     10434.7556 E_long   =    -13225.3172 Press    =     -1188.8745 
Volume   =      6715.2007 
SHAKE stats (type/ave/delta) on step 11500
  1 1 5.68262e-06
  1 109.47 0.000509649
---------------- Step    11500 ----- CPU =      7.4586 (sec) ----------------
TotEng   =     -1985.0440 KinEng   =       379.5468 Temp     =       295.4294 
PotEng   =     -2364.5908 E_bond   =         0.0000 E_angle  =         0.0000 
E_dihed  =         0.0000 E_impro  =         0.0000 E_vdwl   =       453.9267 
E_coul   =     10404.7120 E_long   =    -13223.2296 Press    =      -229.5009 
Volume   =      6709.6989 
---------------- Step    11600 ----- CPU =      7.9554 (sec) ----------------
TotEng   =     -1969.6023 KinEng   =       380.8444 Temp     =       296.4395 
PotEng   =     -2350.4468 E_bond   =         0.0000 E_angle  =         0.0000 
E_dihed  =         0.0000 E_impro  =         0.0000 E_vdwl   =       468.4227 
E_coul   =     10401.8419 E_long   =    -13220.7114 Press    =       274.2884 
Volume   =      6702.9261 
---------------- Step    11700 ----- CPU =      8.4522 (sec) ----------------
TotEng   =     -2029.8149 KinEng   =       366.3275 Temp     =       285.1398 
PotEng   =     -2396.1423 E_bond   =         0.0000 E_angle  =         0.0000 
E_dihed  =         0.0000 E_impro  =         0.0000 E_vdwl   =       458.0382 
E_coul   =     10369.4461 E_long   =    -13223.6266 Press    =      -594.9995 
Volume   =      6688.6844 
---------------- Step    11800 ----- CPU =      8.9461 (sec) ----------------
TotEng   =     -1991.2266 KinEng   =       392.7550 Temp     =       305.7103 
PotEng   =     -2383.9816 E_bond   =         0.0000 E_angle  =         0.0000 
[...]
E_dihed  =         0.0000 E_impro  =         0.0000 E_vdwl   =       426.7640 
E_coul   =     10418.0924 E_long   =    -13226.6555 Press    =     -1384.3071 
Volume   =      6631.4088 
---------------- Step   105900 ----- CPU =    481.8962 (sec) ----------------
TotEng   =     -1979.5690 KinEng   =       379.6684 Temp     =       295.5241 
PotEng   =     -2359.2374 E_bond   =         0.0000 E_angle  =         0.0000 
E_dihed  =         0.0000 E_impro  =         0.0000 E_vdwl   =       417.2156 
E_coul   =     10450.2349 E_long   =    -13226.6878 Press    =     -1449.1349 
Volume   =      6641.9048 
SHAKE stats (type/ave/delta) on step 106000
  1 0.999989 7.7433e-06
  1 109.47 0.000667582
---------------- Step   106000 ----- CPU =    482.3984 (sec) ----------------
TotEng   =     -1987.6563 KinEng   =       390.9968 Temp     =       304.3418 
PotEng   =     -2378.6531 E_bond   =         0.0000 E_angle  =         0.0000 
E_dihed  =         0.0000 E_impro  =         0.0000 E_vdwl   =       479.8156 
E_coul   =     10365.9585 E_long   =    -13224.4272 Press    =       317.9962 
Volume   =      6620.2758 
---------------- Step   106100 ----- CPU =    482.8924 (sec) ----------------
TotEng   =     -2016.9124 KinEng   =       365.8773 Temp     =       284.7895 
PotEng   =     -2382.7898 E_bond   =         0.0000 E_angle  =         0.0000 
E_dihed  =         0.0000 E_impro  =         0.0000 E_vdwl   =       460.4531 
E_coul   =     10382.3800 E_long   =    -13225.6229 Press    =      -348.7378 
Volume   =      6589.0617 
---------------- Step   106200 ----- CPU =    483.3828 (sec) ----------------
TotEng   =     -1972.0170 KinEng   =       414.0836 Temp     =       322.3120 
PotEng   =     -2386.1006 E_bond   =         0.0000 E_angle  =         0.0000 
E_dihed  =         0.0000 E_impro  =         0.0000 E_vdwl   =       471.2753 
E_coul   =     10367.0780 E_long   =    -13224.4539 Press    =       345.2150 
Volume   =      6509.6098 
---------------- Step   106300 ----- CPU =    483.8806 (sec) ----------------
TotEng   =     -2006.5215 KinEng   =       395.2191 Temp     =       307.6283 
PotEng   =     -2401.7406 E_bond   =         0.0000 E_angle  =         0.0000 
E_dihed  =         0.0000 E_impro  =         0.0000 E_vdwl   =       442.7431 
E_coul   =     10380.9590 E_long   =    -13225.4427 Press    =      -693.8965 
Volume   =      6429.5598 
---------------- Step   106400 ----- CPU =    484.3924 (sec) ----------------
TotEng   =     -2033.4642 KinEng   =       371.2247 Temp     =       288.9517 
PotEng   =     -2404.6889 E_bond   =         0.0000 E_angle  =         0.0000 
E_dihed  =         0.0000 E_impro  =         0.0000 E_vdwl   =       451.7966 
E_coul   =     10367.2326 E_long   =    -13223.7182 Press    =      -293.2145 
Volume   =      6343.5915 
SHAKE stats (type/ave/delta) on step 106500
  1 0.999987 7.63944e-06
  1 109.47 0.00066417
---------------- Step   106500 ----- CPU =    484.9028 (sec) ----------------
TotEng   =     -1983.7916 KinEng   =       409.7954 Temp     =       318.9741 
PotEng   =     -2393.5870 E_bond   =         0.0000 E_angle  =         0.0000 
E_dihed  =         0.0000 E_impro  =         0.0000 E_vdwl   =       477.1334 
E_coul   =     10353.4963 E_long   =    -13224.2167 Press    =      1364.5874 
Volume   =      6279.3413 
---------------- Step   106600 ----- CPU =    485.4208 (sec) ----------------
TotEng   =     -2020.7537 KinEng   =       397.1548 Temp     =       309.1351 
PotEng   =     -2417.9086 E_bond   =         0.0000 E_angle  =         0.0000 
E_dihed  =         0.0000 E_impro  =         0.0000 E_vdwl   =       469.7520 
E_coul   =     10338.6350 E_long   =    -13226.2956 Press    =       280.0514 
Volume   =      6281.4619 
---------------- Step   106700 ----- CPU =    485.9305 (sec) ----------------
TotEng   =     -2008.2307 KinEng   =       408.0108 Temp     =       317.5851 
PotEng   =     -2416.2415 E_bond   =         0.0000 E_angle  =         0.0000 
E_dihed  =         0.0000 E_impro  =         0.0000 E_vdwl   =       492.1450 
E_coul   =     10316.4755 E_long   =    -13224.8620 Press    =      1309.0573 
Volume   =      6314.1324 
---------------- Step   106800 ----- CPU =    486.4460 (sec) ----------------
TotEng   =     -2004.9442 KinEng   =       354.2044 Temp     =       275.7036 
PotEng   =     -2359.1486 E_bond   =         0.0000 E_angle  =         0.0000 
E_dihed  =         0.0000 E_impro  =         0.0000 E_vdwl   =       461.7275 
E_coul   =     10403.5690 E_long   =    -13224.4451 Press    =       589.9852 
Volume   =      6387.5046 
---------------- Step   106900 ----- CPU =    486.9516 (sec) ----------------
TotEng   =     -1977.1421 KinEng   =       400.7744 Temp     =       311.9525 
PotEng   =     -2377.9165 E_bond   =         0.0000 E_angle  =         0.0000 
E_dihed  =         0.0000 E_impro  =         0.0000 E_vdwl   =       434.3077 
E_coul   =     10414.4175 E_long   =    -13226.6418 Press    =      -604.5285 
Volume   =      6455.8229 
SHAKE stats (type/ave/delta) on step 107000
  1 1.00003 5.36155e-06
  1 109.47 0.000475523
---------------- Step   107000 ----- CPU =    487.4544 (sec) ----------------
TotEng   =     -2037.4673 KinEng   =       372.5055 Temp     =       289.9487 
PotEng   =     -2409.9728 E_bond   =         0.0000 E_angle  =         0.0000 
E_dihed  =         0.0000 E_impro  =         0.0000 E_vdwl   =       435.2458 
E_coul   =     10377.7449 E_long   =    -13222.9635 Press    =     -1314.7531 
Volume   =      6516.8139 
---------------- Step   107100 ----- CPU =    487.9519 (sec) ----------------
TotEng   =     -2004.8885 KinEng   =       377.4224 Temp     =       293.7759 
PotEng   =     -2382.3110 E_bond   =         0.0000 E_angle  =         0.0000 
E_dihed  =         0.0000 E_impro  =         0.0000 E_vdwl   =       433.8652 
E_coul   =     10407.1628 E_long   =    -13223.3390 Press    =      -867.0950 
Volume   =      6537.3978 
---------------- Step   107200 ----- CPU =    488.4454 (sec) ----------------
TotEng   =     -1984.7605 KinEng   =       390.3473 Temp     =       303.8363 
PotEng   =     -2375.1078 E_bond   =         0.0000 E_angle  =         0.0000 
E_dihed  =         0.0000 E_impro  =         0.0000 E_vdwl   =       455.6687 
E_coul   =     10392.7868 E_long   =    -13223.5633 Press    =       139.6930 
Volume   =      6517.5339 
---------------- Step   107300 ----- CPU =    488.9480 (sec) ----------------
TotEng   =     -2023.0217 KinEng   =       377.8478 Temp     =       294.1070 
PotEng   =     -2400.8695 E_bond   =         0.0000 E_angle  =         0.0000 
E_dihed  =         0.0000 E_impro  =         0.0000 E_vdwl   =       482.9907 
E_coul   =     10341.4668 E_long   =    -13225.3270 Press    =       421.1322 
Volume   =      6504.2217 
---------------- Step   107400 ----- CPU =    489.4480 (sec) ----------------
TotEng   =     -2047.9547 KinEng   =       394.0990 Temp     =       306.7565 
PotEng   =     -2442.0537 E_bond   =         0.0000 E_angle  =         0.0000 
E_dihed  =         0.0000 E_impro  =         0.0000 E_vdwl   =       483.4339 
E_coul   =     10301.0988 E_long   =    -13226.5865 Press    =       -17.6601 
Volume   =      6520.7366 
SHAKE stats (type/ave/delta) on step 107500
  1 0.999998 1.23443e-05
  1 109.47 0.000958723
---------------- Step   107500 ----- CPU =    489.9526 (sec) ----------------
TotEng   =     -2011.2517 KinEng   =       378.1216 Temp     =       294.3201 
PotEng   =     -2389.3733 E_bond   =         0.0000 E_angle  =         0.0000 
E_dihed  =         0.0000 E_impro  =         0.0000 E_vdwl   =       457.6476 
E_coul   =     10380.5557 E_long   =    -13227.5765 Press    =      -260.3559 
Volume   =      6537.0599 
---------------- Step   107600 ----- CPU =    490.4505 (sec) ----------------
TotEng   =     -2011.8507 KinEng   =       379.4238 Temp     =       295.3337 
PotEng   =     -2391.2745 E_bond   =         0.0000 E_angle  =         0.0000 
E_dihed  =         0.0000 E_impro  =         0.0000 E_vdwl   =       423.1645 
E_coul   =     10410.8110 E_long   =    -13225.2501 Press    =     -1351.3716 
Volume   =      6511.7199 
---------------- Step   107700 ----- CPU =    490.9587 (sec) ----------------
TotEng   =     -2029.7890 KinEng   =       379.9458 Temp     =       295.7400 
PotEng   =     -2409.7348 E_bond   =         0.0000 E_angle  =         0.0000 
E_dihed  =         0.0000 E_impro  =         0.0000 E_vdwl   =       486.1179 
E_coul   =     10326.1897 E_long   =    -13222.0424 Press    =       752.1906 
Volume   =      6451.3794 
---------------- Step   107800 ----- CPU =    491.4715 (sec) ----------------
TotEng   =     -1961.0833 KinEng   =       401.0723 Temp     =       312.1843 
PotEng   =     -2362.1556 E_bond   =         0.0000 E_angle  =         0.0000 
E_dihed  =         0.0000 E_impro  =         0.0000 E_vdwl   =       477.8835 
E_coul   =     10382.8737 E_long   =    -13222.9128 Press    =      1080.1103 
Volume   =      6420.3201 
---------------- Step   107900 ----- CPU =    491.9764 (sec) ----------------
TotEng   =     -1998.6638 KinEng   =       390.0396 Temp     =       303.5968 
PotEng   =     -2388.7035 E_bond   =         0.0000 E_angle  =         0.0000 
E_dihed  =         0.0000 E_impro  =         0.0000 E_vdwl   =       466.0203 
E_coul   =     10370.0741 E_long   =    -13224.7979 Press    =       536.1921 
Volume   =      6422.1631 
SHAKE stats (type/ave/delta) on step 108000
  1 1.00003 6.64441e-06
  1 109.47 0.000589257
---------------- Step   108000 ----- CPU =    492.4833 (sec) ----------------
TotEng   =     -2007.2480 KinEng   =       386.7333 Temp     =       301.0232 
PotEng   =     -2393.9813 E_bond   =         0.0000 E_angle  =         0.0000 
E_dihed  =         0.0000 E_impro  =         0.0000 E_vdwl   =       461.6955 
E_coul   =     10368.2076 E_long   =    -13223.8844 Press    =       127.3619 
Volume   =      6457.7089 
---------------- Step   108100 ----- CPU =    492.9841 (sec) ----------------
TotEng   =     -1947.5867 KinEng   =       380.6045 Temp     =       296.2527 
PotEng   =     -2328.1913 E_bond   =         0.0000 E_angle  =         0.0000 
E_dihed  =         0.0000 E_impro  =         0.0000 E_vdwl   =       443.0197 
E_coul   =     10453.9835 E_long   =    -13225.1945 Press    =       293.5098 
Volume   =      6533.1470 
---------------- Step   108200 ----- CPU =    493.4841 (sec) ----------------
TotEng   =     -1982.2260 KinEng   =       387.2044 Temp     =       301.3899 
PotEng   =     -2369.4304 E_bond   =         0.0000 E_angle  =         0.0000 
E_dihed  =         0.0000 E_impro  =         0.0000 E_vdwl   =       390.5040 
E_coul   =     10463.2078 E_long   =    -13223.1422 Press    =     -2257.2812 
Volume   =      6627.2781 
---------------- Step   108300 ----- CPU =    493.9761 (sec) ----------------
TotEng   =     -1996.5523 KinEng   =       395.0784 Temp     =       307.5189 
PotEng   =     -2391.6307 E_bond   =         0.0000 E_angle  =         0.0000 
E_dihed  =         0.0000 E_impro  =         0.0000 E_vdwl   =       464.5175 
E_coul   =     10370.3932 E_long   =    -13226.5414 Press    =      -221.2832 
Volume   =      6674.7654 
---------------- Step   108400 ----- CPU =    494.4673 (sec) ----------------
TotEng   =     -2033.2284 KinEng   =       387.8388 Temp     =       301.8837 
PotEng   =     -2421.0671 E_bond   =         0.0000 E_angle  =         0.0000 
E_dihed  =         0.0000 E_impro  =         0.0000 E_vdwl   =       446.7431 
E_coul   =     10356.0170 E_long   =    -13223.8272 Press    =     -1254.7750 
Volume   =      6692.0146 
SHAKE stats (type/ave/delta) on step 108500
  1 0.999977 1.64166e-05
  1 109.47 0.00120803
---------------- Step   108500 ----- CPU =    494.9645 (sec) ----------------
TotEng   =     -1986.3420 KinEng   =       366.5134 Temp     =       285.2845 
PotEng   =     -2352.8553 E_bond   =         0.0000 E_angle  =         0.0000 
E_dihed  =         0.0000 E_impro  =         0.0000 E_vdwl   =       458.1347 
E_coul   =     10414.0133 E_long   =    -13225.0033 Press    =        13.3016 
Volume   =      6662.8281 
---------------- Step   108600 ----- CPU =    495.4655 (sec) ----------------
TotEng   =     -1990.3973 KinEng   =       383.9122 Temp     =       298.8274 
PotEng   =     -2374.3096 E_bond   =         0.0000 E_angle  =         0.0000 
E_dihed  =         0.0000 E_impro  =         0.0000 E_vdwl   =       461.0286 
E_coul   =     10388.8605 E_long   =    -13224.1986 Press    =       -83.3277 
Volume   =      6613.3494 
---------------- Step   108700 ----- CPU =    495.9660 (sec) ----------------
TotEng   =     -2013.2691 KinEng   =       379.5864 Temp     =       295.4603 
PotEng   =     -2392.8556 E_bond   =         0.0000 E_angle  =         0.0000 
E_dihed  =         0.0000 E_impro  =         0.0000 E_vdwl   =       438.6690 
E_coul   =     10393.3182 E_long   =    -13224.8428 Press    =      -874.7085 
Volume   =      6553.9690 
---------------- Step   108800 ----- CPU =    496.4686 (sec) ----------------
TotEng   =     -2005.7576 KinEng   =       374.1825 Temp     =       291.2540 
PotEng   =     -2379.9401 E_bond   =         0.0000 E_angle  =         0.0000 
E_dihed  =         0.0000 E_impro  =         0.0000 E_vdwl   =       485.4408 
E_coul   =     10358.5675 E_long   =    -13223.9485 Press    =      1157.2817 
Volume   =      6497.1761 
---------------- Step   108900 ----- CPU =    496.9733 (sec) ----------------
TotEng   =     -1997.7200 KinEng   =       379.7439 Temp     =       295.5828 
PotEng   =     -2377.4639 E_bond   =         0.0000 E_angle  =         0.0000 
E_dihed  =         0.0000 E_impro  =         0.0000 E_vdwl   =       484.3513 
E_coul   =     10361.8466 E_long   =    -13223.6618 Press    =       996.4818 
Volume   =      6489.4916 
SHAKE stats (type/ave/delta) on step 109000
  1 0.99998 9.67342e-06
  1 109.47 0.000695694
---------------- Step   109000 ----- CPU =    497.4825 (sec) ----------------
TotEng   =     -2040.2821 KinEng   =       367.3391 Temp     =       285.9273 
PotEng   =     -2407.6212 E_bond   =         0.0000 E_angle  =         0.0000 
E_dihed  =         0.0000 E_impro  =         0.0000 E_vdwl   =       447.4258 
E_coul   =     10371.0525 E_long   =    -13226.0995 Press    =      -973.1825 
Volume   =      6480.2015 
---------------- Step   109100 ----- CPU =    497.9787 (sec) ----------------
TotEng   =     -2000.8072 KinEng   =       393.4182 Temp     =       306.2266 
PotEng   =     -2394.2254 E_bond   =         0.0000 E_angle  =         0.0000 
E_dihed  =         0.0000 E_impro  =         0.0000 E_vdwl   =       503.7389 
E_coul   =     10328.3270 E_long   =    -13226.2913 Press    =      1568.4481 
Volume   =      6424.6701 
---------------- Step   109200 ----- CPU =    498.4872 (sec) ----------------
TotEng   =     -1993.6450 KinEng   =       370.3085 Temp     =       288.2385 
PotEng   =     -2363.9534 E_bond   =         0.0000 E_angle  =         0.0000 
E_dihed  =         0.0000 E_impro  =         0.0000 E_vdwl   =       450.5731 
E_coul   =     10411.4036 E_long   =    -13225.9301 Press    =        32.9027 
Volume   =      6405.3371 
---------------- Step   109300 ----- CPU =    498.9983 (sec) ----------------
TotEng   =     -2043.1535 KinEng   =       371.8165 Temp     =       289.4124 
PotEng   =     -2414.9700 E_bond   =         0.0000 E_angle  =         0.0000 
E_dihed  =         0.0000 E_impro  =         0.0000 E_vdwl   =       464.7834 
E_coul   =     10345.2247 E_long   =    -13224.9781 Press    =       -10.6409 
Volume   =      6396.6447 
---------------- Step   109400 ----- CPU =    499.5112 (sec) ----------------
TotEng   =     -2023.9554 KinEng   =       387.2235 Temp     =       301.4048 
PotEng   =     -2411.1789 E_bond   =         0.0000 E_angle  =         0.0000 
E_dihed  =         0.0000 E_impro  =         0.0000 E_vdwl   =       466.6744 
E_coul   =     10348.0776 E_long   =    -13225.9309 Press    =       322.3438 
Volume   =      6382.8913 
SHAKE stats (type/ave/delta) on step 109500
  1 1 4.56046e-06
  1 109.47 0.000420658
---------------- Step   109500 ----- CPU =    500.0177 (sec) ----------------
TotEng   =     -2004.2585 KinEng   =       373.3633 Temp     =       290.6163 
PotEng   =     -2377.6218 E_bond   =         0.0000 E_angle  =         0.0000 
E_dihed  =         0.0000 E_impro  =         0.0000 E_vdwl   =       431.1372 
E_coul   =     10415.3372 E_long   =    -13224.0961 Press    =      -633.6581 
Volume   =      6383.2221 
---------------- Step   109600 ----- CPU =    500.5323 (sec) ----------------
TotEng   =     -1958.3296 KinEng   =       377.7986 Temp     =       294.0687 
PotEng   =     -2336.1282 E_bond   =         0.0000 E_angle  =         0.0000 
E_dihed  =         0.0000 E_impro  =         0.0000 E_vdwl   =       467.0652 
E_coul   =     10421.0254 E_long   =    -13224.2188 Press    =      1265.2559 
Volume   =      6371.3216 
---------------- Step   109700 ----- CPU =    501.0420 (sec) ----------------
TotEng   =     -1996.9265 KinEng   =       369.4076 Temp     =       287.5374 
PotEng   =     -2366.3341 E_bond   =         0.0000 E_angle  =         0.0000 
E_dihed  =         0.0000 E_impro  =         0.0000 E_vdwl   =       421.9364 
E_coul   =     10433.6208 E_long   =    -13221.8913 Press    =      -663.6126 
Volume   =      6377.3652 
---------------- Step   109800 ----- CPU =    501.5478 (sec) ----------------
TotEng   =     -2031.8460 KinEng   =       378.0774 Temp     =       294.2857 
PotEng   =     -2409.9234 E_bond   =         0.0000 E_angle  =         0.0000 
E_dihed  =         0.0000 E_impro  =         0.0000 E_vdwl   =       458.6554 
E_coul   =     10358.4428 E_long   =    -13227.0215 Press    =       -15.8624 
Volume   =      6398.5354 
---------------- Step   109900 ----- CPU =    502.0528 (sec) ----------------
TotEng   =     -2053.1813 KinEng   =       380.5747 Temp     =       296.2295 
PotEng   =     -2433.7560 E_bond   =         0.0000 E_angle  =         0.0000 
E_dihed  =         0.0000 E_impro  =         0.0000 E_vdwl   =       442.6938 
E_coul   =     10347.9049 E_long   =    -13224.3546 Press    =     -1259.2558 
Volume   =      6428.1130 
SHAKE stats (type/ave/delta) on step 110000
  1 0.999996 5.82394e-06
  1 109.47 0.000799823
---------------- Step   110000 ----- CPU =    502.5609 (sec) ----------------
TotEng   =     -1983.2174 KinEng   =       407.3143 Temp     =       317.0429 
PotEng   =     -2390.5317 E_bond   =         0.0000 E_angle  =         0.0000 
E_dihed  =         0.0000 E_impro  =         0.0000 E_vdwl   =       436.5902 
E_coul   =     10398.6824 E_long   =    -13225.8042 Press    =      -657.4745 
Volume   =      6427.4873 
Loop time of 502.561 on 1 procs for 100000 steps with 648 atoms

Performance: 34.384 ns/day, 0.698 hours/ns, 198.981 timesteps/s
100.0% CPU use with 1 MPI tasks x no OpenMP threads

MPI task timing breakdown:
Section |  min time  |  avg time  |  max time  |%varavg| %total
---------------------------------------------------------------
Pair    | 322.73     | 322.73     | 322.73     |   0.0 | 64.22
Bond    | 0.028652   | 0.028652   | 0.028652   |   0.0 |  0.01
Kspace  | 85.509     | 85.509     | 85.509     |   0.0 | 17.01
Neigh   | 39.127     | 39.127     | 39.127     |   0.0 |  7.79
Comm    | 3.7485     | 3.7485     | 3.7485     |   0.0 |  0.75
Output  | 0.045887   | 0.045887   | 0.045887   |   0.0 |  0.01
Modify  | 50.539     | 50.539     | 50.539     |   0.0 | 10.06
Other   |            | 0.8347     |            |       |  0.17

Nlocal:    648 ave 648 max 648 min
Histogram: 1 0 0 0 0 0 0 0 0 0
Nghost:    7175 ave 7175 max 7175 min
Histogram: 1 0 0 0 0 0 0 0 0 0
Neighs:    235973 ave 235973 max 235973 min
Histogram: 1 0 0 0 0 0 0 0 0 0

Total # of neighbors = 235973
Ave neighs/atom = 364.156
Ave special neighs/atom = 2
Neighbor list builds = 7366
Dangerous builds = 0
unfix           2
undump          1

log             ${sname}.2pt.eng
log             watbox.spc.2pt.eng
