ITEM: TIMESTEP
0
ITEM: NUMBER OF ATOMS
648
ITEM: BOX BOUNDS pp pp pp
0.0000000000000000e+00 1.8774349999999998e+01
0.0000000000000000e+00 1.8774349999999998e+01
0.0000000000000000e+00 1.8774349999999998e+01
ITEM: ATOMS id type xu yu zu vx vy vz 
16 2 2.55988 5.43477 4.11264 0 0 -0 
17 1 1.5796 5.63195 4.09945 -0 0 0 
18 1 2.87338 5.24078 3.18308 0 0 -0 
34 2 4.76525 4.03755 5.23819 -0 0 -0 
35 1 5.02969 4.84954 5.75852 -0 -0 -0 
36 1 3.80411 4.11066 4.97197 -0 0 -0 
208 2 0.355287 6.02172 0.218452 0 0 -0 
298 2 3.83461 0.207143 5.92997 0 0 -0 
300 1 3.12472 0.540721 5.30967 0 -0 0 
352 2 5.66311 4.12604 2.64971 0 0 -0 
354 1 5.47083 4.21306 3.62718 -0 -0 0 
440 1 5.29164 5.39387 0.416702 0 0 0 
456 1 5.106 3.2935 0.603735 0 -0 0 
517 2 0.094758 6.12585 3.19334 0 0 0 
526 2 2.73185 5.18667 1.38573 -0 -0 0 
527 1 3.29219 4.57081 0.831901 -0 0 0 
528 1 1.85596 5.34182 0.928848 -0 -0 -0 
529 2 2.18184 1.31794 0.222861 0 0 0 
530 1 2.89661 1.67221 0.825847 -0 -0 -0 
545 1 19.3161 2.17238 0.22812 0 -0 -0 
607 2 1.85615 1.48103 3.95218 0 0 -0 
608 1 2.66835 1.63095 3.38839 0 -0 -0 
609 1 1.11686 2.07585 3.63652 0 0 -0 
622 2 4.09082 1.8276 2.41134 -0 -0 0 
623 1 4.63237 1.00462 2.58288 0 -0 0 
624 1 4.67189 2.63548 2.50976 0 0 0 
626 1 5.71695 1.05187 5.6405 -0 0 0 
627 1 5.77118 2.64699 5.29513 -0 -0 -0 
549 1 18.7858 4.3626 3.09834 0 -0 -0 
91 2 10.5864 5.08328 1.61897 0 -0 0 
92 1 9.68844 5.19825 2.04369 0 -0 -0 
93 1 11.0962 5.94146 1.67963 -0 -0 0 
181 2 8.37529 1.2469 3.44625 0 -0 0 
182 1 7.61781 1.26846 4.09875 0 -0 -0 
183 1 8.59722 0.297407 3.22444 0 -0 0 
197 1 11.5572 5.87217 6.18303 -0 0 0 
203 1 8.59737 3.44704 18.8767 -0 0 0 
220 2 8.10479 5.69898 2.72062 -0 -0 0 
221 1 7.91035 5.72355 3.70122 -0 -0 0 
250 2 10.8483 2.39551 3.94213 -0 -0 0 
251 1 9.9594 1.95732 3.80875 0 0 -0 
252 1 10.8382 3.30391 3.52414 0 -0 0 
340 2 7.57074 5.72231 5.263 0 -0 -0 
342 1 7.92883 5.0783 5.93903 0 -0 0 
347 1 11.3259 2.43599 5.74447 -0 -0 0 
353 1 6.56922 4.50087 2.45358 -0 0 -0 
453 1 12.1784 1.66054 3.06529 -0 -0 -0 
460 2 7.65188 2.50333 0.963268 -0 0 -0 
461 1 7.14612 1.81779 0.439586 -0 0 -0 
462 1 7.88259 2.13222 1.86274 -0 0 0 
625 2 6.31915 1.82073 5.42553 0 0 0 
204 1 9.8915 4.44272 18.8547 0 0 -0 
341 1 6.80493 6.22931 5.6586 -0 -0 0 
130 2 16.362 0.785777 0.829499 -0 -0 0 
131 1 16.2245 0.807979 1.81975 -0 -0 0 
132 1 17.1212 1.38886 0.584823 -0 -0 0 
258 1 13.5915 5.71715 2.05865 0 -0 -0 
334 2 15.61 3.48528 3.94526 0 0 0 
335 1 15.0449 3.65756 3.13838 -0 0 -0 
336 1 15.0288 3.45304 4.75842 0 0 -0 
451 2 12.8743 1.2043 2.51067 0 0 0 
452 1 13.1125 0.328026 2.92946 -0 -0 0 
499 2 14.074 3.68106 1.66287 0 -0 -0 
500 1 14.3275 3.63648 0.696557 -0 0 0 
501 1 13.4913 2.90108 1.8909 0 -0 -0 
532 2 16.5284 6.19829 4.75238 0 -0 -0 
533 1 16.7681 5.74094 5.60876 0 0 0 
534 1 15.9765 5.58326 4.18916 -0 -0 0 
544 2 18.4171 2.53346 0.475759 -0 -0 -0 
546 1 18.4816 3.01946 1.34733 0 -0 -0 
547 2 18.4662 3.41521 3.11592 0 -0 -0 
548 1 17.5388 3.38314 3.48861 0 0 -0 
616 2 15.9318 0.68406 3.57139 -0 -0 -0 
617 1 15.8153 1.64481 3.82316 0 -0 0 
618 1 15.079 0.18962 3.7397 -0 -0 0 
644 1 12.8812 0.664166 19.3812 0 0 -0 
67 2 0.588748 12.2878 2.81909 0 -0 0 
133 2 2.88566 8.21481 5.24002 0 -0 0 
134 1 2.81072 9.00279 4.6289 0 -0 0 
135 1 2.7084 7.37588 4.72546 -0 -0 0 
189 1 4.34803 7.27516 5.97387 -0 0 0 
209 1 0.297345 6.98812 0.468866 -0 -0 0 
244 2 4.80201 12.0047 4.19479 0 -0 -0 
245 1 3.94169 11.5024 4.10768 -0 -0 0 
246 1 5.54761 11.457 3.81511 -0 -0 -0 
289 2 0.519201 8.50153 1.27885 0 -0 0 
290 1 1.45672 8.57582 1.61875 -0 0 0 
291 1 0.17578 9.41154 1.04658 -0 -0 -0 
328 2 2.58558 10.5405 3.35765 -0 0 0 
329 1 1.808 11.099 3.0688 0 0 0 
330 1 3.0881 10.2267 2.55204 0 -0 -0 
361 2 4.58742 10.3773 1.16866 -0 0 0 
362 1 5.38233 10.4255 1.77348 0 0 -0 
363 1 4.85745 9.97277 0.294918 -0 -0 -0 
364 2 3.23928 7.80795 1.95926 -0 -0 0 
365 1 3.22832 6.81389 1.85104 -0 0 -0 
366 1 4.18505 8.13279 1.95966 -0 -0 0 
407 1 2.76283 7.60571 18.8698 -0 -0 0 
439 2 5.56217 6.31109 0.12425 -0 0 -0 
468 1 3.84593 11.8971 0.898356 0 0 0 
519 1 0.377517 6.68309 2.41261 -0 0 -0 
52 2 11.2642 11.7334 5.19343 -0 0 -0 
53 1 10.5749 12.0251 4.53024 0 0 0 
54 1 11.499 12.5011 5.78965 0 0 0 
88 2 10.6233 8.9588 5.15872 0 -0 -0 
89 1 9.62562 8.94595 5.09189 0 -0 -0 
90 1 10.9593 9.87819 4.95409 -0 0 -0 
190 2 12.2222 6.70937 4.81271 -0 0 -0 
191 1 11.6673 7.53964 4.86517 0 0 0 
222 1 7.73108 6.51844 2.28608 -0 0 0 
226 2 7.03875 8.07129 1.55365 -0 0 -0 
227 1 6.54313 7.48229 0.915341 0 -0 -0 
228 1 7.81748 8.4891 1.08565 0 -0 0 
292 2 7.93473 10.155 5.54071 -0 0 -0 
293 1 8.24877 11.0858 5.72791 0 0 -0 
394 2 7.82992 12.3196 0.380816 -0 0 -0 
395 1 7.75449 11.91 1.28996 -0 0 -0 
400 2 10.9437 11.3197 1.19275 -0 -0 0 
401 1 10.4706 11.8612 1.88768 -0 0 0 
402 1 11.623 10.7326 1.63306 0 -0 -0 
409 2 6.67026 10.2756 3.08478 -0 0 0 
410 1 7.17664 10.2681 3.94706 -0 -0 0 
411 1 6.8326 9.41879 2.59541 -0 0 -0 
415 2 9.25737 9.21959 0.557137 -0 0 0 
417 1 9.77162 10.0549 0.751385 0 0 -0 
83 1 14.9574 12.157 5.63426 -0 -0 -0 
97 2 14.555 10.4525 5.54642 -0 -0 0 
98 1 13.8837 10.1343 4.87696 -0 -0 -0 
118 2 12.8489 9.7842 2.43749 -0 0 0 
119 1 13.0923 8.82134 2.32054 -0 0 -0 
120 1 13.6758 10.3448 2.39291 0 -0 0 
192 1 12.7387 6.7072 3.95641 -0 -0 -0 
256 2 13.5888 6.65501 2.40563 -0 0 0 
257 1 14.4499 7.10232 2.16384 -0 -0 -0 
274 2 15.8343 8.09343 1.73836 0 0 -0 
275 1 15.6535 8.47371 0.831339 0 -0 0 
276 1 16.5418 8.63535 2.19202 0 0 0 
316 2 14.9031 11.6619 2.81087 -0 0 0 
317 1 14.5753 12.1728 3.60555 -0 -0 0 
318 1 15.7639 11.207 3.03898 0 -0 -0 
484 2 17.3195 10.4596 3.16104 0 -0 -0 
485 1 18.0627 11.1274 3.11876 -0 0 -0 
486 1 17.4276 9.89188 3.97711 0 0 -0 
496 2 17.814 10.7847 0.45189 -0 0 0 
497 1 17.8015 11.7576 0.221062 -0 0 0 
498 1 17.3936 10.6496 1.34909 0 -0 0 
502 2 17.3095 8.73157 5.36138 0 0 0 
503 1 16.9817 7.8284 5.08415 -0 0 -0 
504 1 16.6024 9.19266 5.89753 0 -0 0 
518 1 -0.793764 6.44306 3.52486 -0 -0 0 
68 1 0.280446 12.7885 2.01022 -0 -0 -0 
69 1 0.747107 12.9305 3.56864 -0 0 -0 
137 1 18.8449 16.8572 19.3281 0 0 -0 
154 2 5.90248 17.2702 5.37394 -0 0 -0 
155 1 5.7275 16.2902 5.4684 0 -0 0 
156 1 5.09664 17.7828 5.67043 0 0 -0 
310 2 1.22385 17.9632 1.71413 0 0 -0 
311 1 1.56471 18.733 1.17447 0 -0 -0 
312 1 0.870151 18.2989 2.58719 0 0 -0 
327 1 6.25764 14.7816 2.70704 -0 -0 -0 
373 2 0.878429 14.1433 4.8379 -0 0 0 
375 1 1.49322 14.8824 4.56262 -0 -0 0 
378 1 2.62268 16.7998 18.9815 0 0 -0 
466 2 3.51005 12.8278 0.75349 -0 -0 -0 
467 1 3.84731 13.4214 1.4842 0 0 -0 
472 2 5.39041 13.9724 6.03472 -0 -0 0 
474 1 5.17336 13.2999 5.32723 -0 -0 -0 
606 1 0.306389 17.7112 5.95271 -0 -0 -0 
619 2 2.52354 16.1758 3.92516 -0 0 -0 
620 1 2.24202 16.6864 3.11275 -0 -0 0 
621 1 2.50586 16.7804 4.72153 0 -0 -0 
637 2 5.53135 18.3253 2.6925 -0 0 0 
638 1 6.08906 17.8792 1.99251 -0 0 -0 
639 1 5.69967 17.8929 3.57833 -0 -0 0 
640 2 4.45472 14.3717 2.8687 -0 -0 -0 
641 1 3.82766 15.0167 3.30556 -0 0 0 
642 1 4.55379 13.5607 3.44527 -0 0 0 
125 1 11.3485 15.1347 5.90342 0 -0 -0 
262 2 9.7043 12.9319 3.0583 0 -0 0 
263 1 9.9747 13.7623 2.57111 -0 0 -0 
264 1 8.83284 13.0872 3.52351 -0 0 0 
286 2 8.40215 12.9164 5.79347 0 -0 -0 
287 1 9.23303 13.4289 6.01007 0 0 -0 
288 1 7.60876 13.5204 5.86863 -0 -0 -0 
325 2 7.18795 15.134 2.60554 -0 -0 -0 
326 1 7.17801 15.9327 2.00383 -0 -0 0 
337 2 9.87018 15.1602 1.42772 0 0 -0 
338 1 10.028 14.9035 0.474216 0 0 0 
339 1 8.9011 15.0475 1.64719 0 0 0 
349 2 8.58975 17.7755 6.01372 -0 0 -0 
350 1 9.11675 17.6997 5.16724 -0 0 -0 
351 1 7.62081 17.6246 5.81776 0 0 -0 
379 2 7.11567 17.0596 0.708777 -0 0 -0 
380 1 7.9113 17.6064 0.447922 -0 -0 0 
463 2 9.78636 17.6206 2.85973 -0 -0 0 
464 1 10.7184 17.9816 2.82842 0 0 0 
465 1 9.74242 16.7659 2.34248 -0 -0 0 
158 1 12.3536 15.0616 1.77491 -0 0 0 
374 1 -0.0665964 14.4694 4.81372 0 -0 0 
82 2 15.0899 13.1461 5.57013 -0 0 0 
151 2 13.5255 17.6145 3.77203 0 -0 0 
152 1 13.2745 17.3469 4.70226 0 0 0 
153 1 13.5282 16.8071 3.1821 0 0 0 
157 2 13.207 15.4137 2.15938 0 0 -0 
159 1 13.9674 14.8312 1.87192 -0 0 -0 
280 2 17.0536 14.8812 4.43767 0 -0 -0 
281 1 16.3497 14.2773 4.81167 -0 0 -0 
282 1 16.7131 15.3126 3.60222 -0 0 -0 
304 2 15.1977 13.6944 1.02811 -0 -0 0 
305 1 15.0134 12.9061 1.61528 0 -0 -0 
306 1 15.0452 13.4412 0.0727731 0 0 0 
388 2 16.3051 16.3657 2.31985 0 -0 0 
389 1 15.9889 15.8523 1.5221 0 -0 0 
390 1 16.1051 17.3371 2.19181 0 -0 -0 
481 2 17.9271 13.6808 0.772066 -0 0 -0 
482 1 16.9427 13.7263 0.942383 -0 -0 -0 
483 1 18.2452 14.5607 0.419131 0 -0 -0 
631 2 17.5046 17.7235 5.05899 -0 0 -0 
632 1 17.4767 16.8156 4.64091 0 -0 -0 
633 1 17.1186 18.3942 4.42557 -0 -0 0 
28 2 1.67349 3.52379 11.9542 0 0 -0 
29 1 1.66348 2.55722 12.2104 0 -0 0 
40 2 2.34182 5.84383 10.558 0 -0 0 
41 1 3.22901 6.07803 10.9556 -0 0 -0 
42 1 2.0115 4.98978 10.9599 -0 -0 -0 
61 2 4.47397 3.35741 11.8703 0 -0 -0 
62 1 4.84612 4.27441 11.7267 -0 -0 -0 
63 1 3.47483 3.39788 11.8605 0 0 -0 
109 2 4.88797 6.14349 11.525 0 0 0 
169 2 5.40004 1.73186 8.62232 0 0 -0 
170 1 4.9066 2.54623 8.31686 -0 0 0 
171 1 5.87927 1.93336 9.47656 0 0 -0 
205 2 0.0154796 1.96613 9.16505 0 -0 0 
207 1 0.668035 1.36357 9.6245 0 -0 0 
217 2 3.71498 4.51175 8.3084 0 -0 -0 
218 1 3.42578 5.01211 9.12449 0 0 -0 
219 1 2.91012 4.15994 7.83045 -0 -0 0 
238 2 1.30374 3.39534 7.22852 -0 0 -0 
239 1 0.858716 2.93048 7.99393 -0 -0 0 
240 1 1.38755 2.76345 6.45801 -0 -0 -0 
299 1 3.43243 0.0177795 6.82574 -0 0 0 
372 1 4.74376 18.9638 8.81426 -0 -0 -0 
535 2 2.05063 0.368046 10.2494 0 -0 0 
536 1 2.81783 0.0439469 9.69589 -0 -0 -0 
537 1 2.3905 0.695171 11.1311 0 0 0 
30 1 1.0052 4.02198 12.5066 0 -0 -0 
31 2 10.5492 5.64546 9.63309 0 0 -0 
32 1 11.0624 4.88268 10.0265 0 0 0 
33 1 10.736 5.70223 8.65233 0 -0 -0 
45 1 7.04551 6.18423 9.45763 -0 0 -0 
76 2 8.09977 0.796148 8.11426 0 0 0 
77 1 8.4442 0.192173 7.39553 0 0 0 
78 1 7.13625 1.00203 7.94326 -0 0 0 
184 2 7.47493 2.1735 10.4144 -0 -0 0 
185 1 7.56515 3.13401 10.1512 -0 0 -0 
186 1 7.90735 1.59609 9.72186 0 0 -0 
196 2 11.2482 5.4872 7.05269 -0 0 0 
198 1 11.1796 4.49287 6.97142 -0 0 -0 
214 2 7.98495 4.67595 9.38031 -0 0 0 
215 1 8.01861 4.32159 8.4458 0 -0 -0 
216 1 8.88041 5.04496 9.6293 -0 -0 0 
223 2 11.9457 3.49489 10.54 0 -0 -0 
224 1 12.0777 3.8336 11.4716 -0 0 -0 
225 1 11.5573 2.57397 10.572 -0 -0 -0 
346 2 11.6693 2.64677 6.65972 0 -0 0 
428 1 7.77438 2.11493 12.1109 -0 -0 -0 
578 1 11.9394 0.527632 12.0462 0 -0 0 
595 2 10.3688 1.04448 11.4049 0 -0 0 
596 1 9.73705 1.5125 12.0229 0 -0 0 
597 1 9.92394 0.233426 11.0251 -0 -0 -0 
610 2 8.10357 3.46824 6.89976 0 -0 -0 
611 1 7.44689 2.91837 6.38361 0 0 0 
612 1 8.87022 2.89235 7.18366 -0 -0 -0 
615 1 12.0863 0.853701 7.91621 0 -0 0 
37 2 14.5139 3.14814 6.64838 0 -0 -0 
38 1 15.273 2.52845 6.84793 -0 0 -0 
39 1 14.4345 3.82455 7.38062 -0 0 -0 
58 2 14.8002 4.89722 9.43077 0 0 -0 
59 1 13.9249 5.04328 9.89167 0 -0 0 
60 1 15.2043 5.78103 9.19495 0 0 -0 
73 2 17.5034 4.43126 9.95145 -0 -0 0 
74 1 16.5194 4.56489 10.069 0 0 -0 
75 1 17.9967 5.18002 10.3942 -0 0 -0 
206 1 -0.278388 2.68307 9.79723 -0 0 0 
348 1 12.6632 2.75203 6.62679 0 0 -0 
538 2 17.5989 4.96276 7.16276 -0 0 0 
539 1 17.4456 4.57228 8.07051 -0 -0 0 
540 1 18.4591 4.61399 6.79084 0 0 -0 
584 1 15.6442 19.0322 10.2787 0 -0 -0 
598 2 14.8414 1.64259 9.46662 0 0 -0 
599 1 15.5597 1.6212 8.77117 -0 0 0 
600 1 14.5964 2.59188 9.66365 0 -0 0 
601 2 16.611 1.46972 7.48094 0 -0 -0 
602 1 16.4966 0.517639 7.19729 -0 0 -0 
603 1 17.4784 1.5704 7.96822 -0 0 0 
613 2 12.7587 0.174534 8.21042 0 -0 -0 
614 1 13.5261 0.636257 8.65542 -0 0 -0 
7 2 3.97384 10.6002 10.4232 -0 0 -0 
8 1 3.29109 10.0491 10.9028 0 0 -0 
9 1 4.80556 10.6555 10.9756 0 -0 0 
19 2 0.396108 7.74784 9.89871 0 -0 0 
20 1 1.1182 7.07712 10.0682 -0 -0 0 
21 1 0.62038 8.27996 9.08228 0 -0 -0 
55 2 6.24188 11.3516 12.0664 -0 -0 0 
103 2 6.13025 9.24998 7.55235 -0 -0 0 
104 1 5.79919 8.48834 6.9953 0 0 0 
110 1 5.42632 6.43949 10.736 -0 -0 -0 
111 1 5.20564 6.62192 12.3437 -0 -0 0 
139 2 0.39139 11.3169 11.0817 0 -0 -0 
140 1 0.28793 11.5072 10.1054 -0 0 -0 
141 1 1.16907 10.704 11.2212 -0 -0 0 
187 2 5.1156 6.80975 6.41459 -0 0 -0 
188 1 4.7964 6.35395 7.24547 -0 0 -0 
259 2 4.663 11.7312 8.06849 -0 -0 -0 
260 1 5.16976 11.0353 7.55961 -0 -0 0 
261 1 4.24864 11.3162 8.87844 -0 0 0 
487 2 0.795347 8.92916 7.28269 -0 -0 -0 
488 1 0.10237 8.72828 6.59028 -0 -0 -0 
489 1 1.70606 8.81277 6.88638 0 0 0 
491 1 18.8576 10.5076 7.93228 -0 -0 0 
492 1 19.1135 12.1182 7.8484 0 -0 -0 
505 2 2.04747 9.3201 11.9387 0 -0 -0 
507 1 1.39454 8.69261 11.5145 -0 0 -0 
294 1 7.38534 9.82768 6.30948 0 -0 -0 
57 1 6.45639 11.9275 11.2775 0 0 -0 
1 2 11.959 8.34394 7.49313 0 -0 -0 
2 1 11.7956 7.3574 7.49803 0 0 0 
3 1 11.4092 8.7693 6.77422 0 -0 0 
4 2 10.0552 10.0865 9.40392 0 -0 -0 
5 1 9.38228 9.54839 9.91149 0 -0 -0 
6 1 10.8493 9.5157 9.195 -0 -0 -0 
26 1 9.60423 11.7622 9.4715 0 0 0 
43 2 6.64737 7.08317 9.64039 -0 0 0 
44 1 7.30943 7.64674 10.1344 0 -0 0 
105 1 6.33413 8.92385 8.47543 -0 0 -0 
211 2 11.5 7.90351 11.0241 -0 -0 -0 
212 1 10.7383 8.40629 11.4329 -0 -0 -0 
213 1 11.1549 7.07246 10.5879 0 -0 -0 
235 2 8.33321 8.75689 11.1862 -0 0 -0 
236 1 8.56835 8.08967 11.893 0 -0 -0 
237 1 7.86336 9.53414 11.6047 -0 0 -0 
285 1 11.6243 12.0463 8.64255 -0 -0 0 
99 1 14.5414 9.84986 6.34435 -0 -0 -0 
283 2 12.5427 12.2364 8.29554 0 -0 0 
85 2 13.2978 11.4347 11.8165 0 0 0 
86 1 13.7348 11.1849 10.9524 -0 -0 -0 
87 1 13.9826 11.8133 12.4391 -0 0 0 
94 2 17.0642 9.77505 11.8274 0 0 0 
95 1 16.2696 10.1287 11.3339 -0 0 -0 
96 1 17.8744 10.306 11.5789 -0 0 0 
247 2 15.3422 10.7673 9.79902 0 -0 0 
248 1 16.103 11.3542 9.52186 -0 0 0 
249 1 15.0967 10.1606 9.04295 -0 -0 -0 
284 1 12.831 11.4937 7.69112 -0 -0 -0 
358 2 14.653 8.91748 7.74693 -0 0 0 
359 1 13.7157 8.56898 7.75309 -0 0 -0 
360 1 15.279 8.19549 8.04162 0 -0 -0 
490 2 18.6043 11.3957 8.31588 0 -0 0 
520 2 16.5042 7.07232 8.66846 0 -0 -0 
521 1 16.9301 6.45211 8.00974 0 -0 -0 
522 1 17.2089 7.46933 9.2564 -0 -0 0 
523 2 16.7613 6.98346 12.2593 -0 0 -0 
524 1 15.772 6.83843 12.2431 0 0 0 
525 1 16.9653 7.92125 11.9784 -0 0 0 
107 1 6.24787 12.5301 8.99129 -0 -0 0 
13 2 4.17176 14.4897 10.7292 -0 -0 -0 
14 1 4.49759 13.6033 10.4003 0 0 -0 
15 1 4.82238 15.2023 10.4668 0 0 0 
142 2 1.64491 13.1805 7.27801 -0 0 0 
143 1 1.48327 13.476 6.33644 0 -0 -0 
144 1 2.55865 12.7806 7.34963 -0 -0 -0 
370 2 4.2118 18.133 8.97802 0 0 -0 
371 1 4.81536 17.4127 9.31994 -0 -0 -0 
469 2 0.616208 15.5859 8.44581 0 0 0 
470 1 1.04138 14.7256 8.16459 0 0 0 
471 1 0.889576 15.802 9.38313 0 -0 -0 
473 1 5.03714 13.656 6.91509 -0 -0 -0 
475 2 1.08083 16.529 10.9948 -0 0 -0 
476 1 0.597118 16.5966 11.8674 0 -0 0 
477 1 1.493 17.4126 10.7727 -0 0 0 
588 1 3.09741 14.3881 12.1705 -0 -0 -0 
604 2 1.18282 17.4483 6.35611 0 0 0 
605 1 1.02179 16.8626 7.15048 0 0 -0 
22 2 10.2854 16.8683 8.08984 0 0 -0 
23 1 9.63463 17.1454 7.38296 -0 -0 -0 
24 1 11.2155 17.0742 7.78574 -0 0 -0 
25 2 9.37243 12.7226 9.62562 0 0 0 
27 1 10.0576 13.1391 10.2232 0 -0 0 
106 2 6.66829 12.8341 9.84619 0 0 -0 
108 1 7.66061 12.8806 9.73155 -0 -0 0 
124 2 10.7644 14.4662 6.36375 -0 0 -0 
126 1 10.6082 14.7546 7.30844 -0 0 0 
297 1 10.4401 14.6913 12.282 0 0 0 
301 2 11.5023 13.5398 11.3055 -0 0 -0 
302 1 11.9753 12.6941 11.5525 -0 -0 0 
303 1 12.1731 14.229 11.0314 0 -0 -0 
560 1 6.78043 15.6517 11.8835 -0 -0 -0 
589 2 6.52298 16.3604 10.1374 -0 0 -0 
590 1 6.87459 15.7448 9.43208 0 0 -0 
591 1 7.19723 17.0754 10.322 -0 -0 0 
592 2 9.24459 17.3572 10.6423 0 0 -0 
593 1 9.70821 17.1489 9.78109 0 0 0 
594 1 9.51139 16.6873 11.335 -0 -0 0 
10 2 14.0964 14.6016 8.27212 0 -0 -0 
11 1 13.5922 13.7507 8.41959 0 0 -0 
12 1 14.9583 14.5702 8.77819 0 0 -0 
70 2 16.0817 14.5811 11.6949 0 0 -0 
71 1 15.5799 15.3711 12.0472 0 -0 0 
72 1 16.6453 14.8633 10.9186 0 -0 0 
79 2 13.7672 16.5497 10.4154 -0 0 -0 
80 1 13.7587 16.0247 9.56438 0 0 0 
81 1 13.1118 17.3022 10.3493 -0 -0 0 
84 1 14.7889 13.5786 6.42006 -0 -0 0 
160 2 12.8235 16.6909 6.45946 0 -0 0 
161 1 13.3826 15.9384 6.80734 -0 0 0 
162 1 13.0706 17.5363 6.933 -0 -0 -0 
367 2 16.7713 15.932 9.16331 -0 0 0 
368 1 16.7625 16.7475 9.74198 -0 -0 -0 
369 1 17.6971 15.7782 8.81803 0 -0 0 
550 2 15.6854 17.5026 7.19103 -0 -0 0 
551 1 16.2752 17.3925 6.39104 -0 0 -0 
552 1 15.8733 16.7715 7.84686 -0 -0 -0 
583 2 15.9131 18.2441 10.8324 0 -0 0 
585 1 15.1671 17.5784 10.8493 -0 -0 -0 
454 2 4.5254 3.69396 -0.105152 -0 0 0 
48 1 19.0284 5.60564 13.9932 0 -0 -0 
49 2 4.84084 1.50383 13.8594 -0 0 -0 
50 1 4.94129 2.20942 13.158 -0 -0 -0 
51 1 3.97336 1.02409 13.7278 -0 -0 0 
199 2 2.73717 4.15142 15.1537 0 0 0 
200 1 2.20917 4.94231 15.4631 0 -0 0 
201 1 2.14577 3.34548 15.1273 0 -0 0 
313 2 0.835423 2.06886 15.3362 -0 0 0 
315 1 1.34935 1.38757 15.8575 0 0 -0 
413 1 4.14629 5.88639 15.2966 -0 -0 -0 
424 2 5.3517 3.18204 16.0488 0 0 0 
425 1 5.28222 2.537 15.2878 -0 0 -0 
426 1 4.65245 3.89012 15.9504 -0 -0 -0 
455 1 4.83023 3.37787 -1.00358 -0 0 0 
531 1 2.56341 1.15623 -0.687219 0 -0 0 
553 2 1.76399 0.876875 13.1211 -0 0 0 
554 1 1.33905 1.36151 13.8857 0 -0 0 
571 2 2.52282 0.173054 16.3419 0 -0 0 
635 1 6.16167 1.55786 17.1037 0 -0 0 
412 2 4.86652 6.22904 15.8998 -0 -0 0 
512 1 0.519572 6.13639 16.285 0 0 -0 
172 2 9.52224 4.48331 14.1608 -0 -0 -0 
173 1 8.94604 4.74196 14.9361 0 0 -0 
174 1 9.17499 3.63797 13.7548 0 0 0 
202 2 9.20397 3.98482 18.2912 0 0 -0 
331 2 12.1569 4.54454 13.0018 -0 -0 -0 
333 1 11.2606 4.61597 13.4394 0 0 0 
427 2 8.14074 2.08945 13.041 -0 0 0 
429 1 7.51233 1.5849 13.6331 0 -0 0 
445 2 7.77079 4.95532 16.2346 -0 -0 0 
446 1 8.24634 4.65918 17.063 -0 -0 -0 
447 1 6.90251 4.46557 16.1557 -0 -0 0 
449 1 11.824 4.03534 16.3919 -0 -0 0 
458 1 9.13447 19.1466 15.4333 0 0 0 
562 2 9.37206 1.75098 16.6729 -0 0 0 
563 1 9.16086 2.59546 17.1651 0 0 0 
564 1 10.3245 1.77162 16.369 -0 -0 0 
565 2 11.9942 1.79258 16.1397 0 0 -0 
567 1 12.421 1.23679 16.8531 -0 0 -0 
630 1 9.21628 19.1502 17.6688 -0 -0 -0 
634 2 6.29898 0.955344 17.8899 -0 -0 0 
636 1 6.87205 0.181349 17.6206 0 -0 -0 
179 1 11.8449 6.25421 17.1605 0 0 0 
448 2 12.55 4.6351 16.7284 -0 0 0 
577 2 12.6478 0.118783 12.6215 0 0 0 
314 1 -0.0507699 2.2237 15.7729 -0 -0 -0 
46 2 18.5157 5.1615 13.2584 -0 0 0 
47 1 17.923 5.83243 12.8128 0 0 0 
102 1 13.3508 5.9711 12.7199 0 -0 0 
163 2 17.6344 5.67118 16.6733 -0 -0 0 
165 1 17.0275 4.88014 16.5966 0 -0 0 
175 2 14.7409 5.37516 15.1436 0 -0 0 
176 1 13.8959 5.25842 15.6655 -0 -0 0 
177 1 14.5792 6.00523 14.3841 0 0 0 
210 1 -0.318015 5.82082 -0.4931 -0 0 0 
229 2 15.3238 0.840629 16.2981 0 0 -0 
230 1 15.5942 0.0128187 16.7896 0 0 0 
231 1 15.5451 0.739679 15.3281 0 -0 0 
332 1 12.6783 3.80568 13.4286 0 0 -0 
355 2 16.4422 3.49119 14.1913 -0 0 0 
356 1 15.789 4.1402 14.5812 0 0 0 
357 1 17.2354 3.98778 13.8388 0 -0 0 
450 1 13.2817 4.0818 17.1265 -0 0 -0 
514 2 15.1599 3.16074 17.8189 0 -0 -0 
515 1 16.0217 3.14542 18.326 -0 -0 -0 
516 1 15.1509 2.41354 17.1543 -0 0 0 
541 2 16.1369 0.798174 13.6202 0 -0 0 
542 1 16.3839 1.76507 13.6842 0 -0 0 
543 1 15.9946 0.553298 12.6612 0 -0 0 
566 1 12.6179 1.87292 15.3621 0 -0 -0 
580 2 13.5067 2.36842 13.9107 0 -0 -0 
581 1 13.2936 1.55487 13.3696 -0 0 -0 
582 1 14.4986 2.46022 13.998 0 0 -0 
643 2 13.0983 0.443777 18.4302 -0 0 0 
645 1 14.0638 0.636841 18.2553 0 0 0 
56 1 5.78557 11.9014 12.7661 0 0 0 
121 2 4.5789 9.78272 15.0267 -0 0 -0 
122 1 4.37337 10.7533 15.1524 -0 0 -0 
123 1 3.73823 9.29051 14.8009 -0 0 0 
167 1 0.490112 12.1941 12.7173 0 -0 0 
168 1 1.20704 12.1296 14.1831 -0 -0 0 
232 2 2.17636 11.7679 15.7137 -0 -0 -0 
233 1 1.75381 11.1287 16.3562 -0 0 0 
241 2 6.06969 7.68851 13.5489 0 -0 -0 
242 1 5.74172 8.54472 13.9481 0 0 -0 
265 2 2.0603 8.74897 14.6663 0 -0 0 
266 1 1.58341 9.32607 15.3293 0 0 -0 
267 1 1.95147 7.78824 14.9215 0 0 0 
268 2 5.28771 9.0669 17.5769 0 -0 -0 
269 1 5.0838 9.38311 16.6504 0 0 0 
270 1 6.15426 8.5678 17.5756 0 0 0 
391 2 0.981538 9.81156 17.1138 0 -0 -0 
392 1 1.52256 9.06856 17.5078 0 0 0 
393 1 0.123392 9.90318 17.6189 0 -0 -0 
406 2 2.7799 7.80845 17.8907 -0 0 -0 
408 1 3.69862 8.10258 17.6272 -0 -0 -0 
414 1 5.51416 6.7754 15.3687 0 0 -0 
441 1 5.35953 6.42411 -0.848459 -0 -0 0 
506 1 2.09698 9.13614 12.9203 0 0 -0 
511 2 1.43099 6.38065 15.9539 -0 0 0 
513 1 1.95582 6.79496 16.6975 0 -0 0 
416 1 9.77554 8.64994 -0.0808368 -0 0 0 
178 2 11.6934 7.23036 17.316 -0 -0 -0 
193 2 7.57195 7.66309 16.8572 0 -0 0 
194 1 7.59443 6.68097 16.6703 -0 -0 -0 
195 1 8.43996 8.07508 16.58 -0 -0 -0 
243 1 7.06897 7.66733 13.5804 0 -0 0 
253 2 10.7482 11.0459 15.9125 0 -0 0 
254 1 10.7598 10.1545 15.4593 -0 0 0 
255 1 9.91779 11.1289 16.4634 -0 0 -0 
343 2 9.01111 7.25858 13.3333 0 -0 0 
344 1 9.63344 7.75021 13.9424 -0 0 -0 
345 1 9.17137 6.27499 13.4162 0 0 -0 
396 1 7.80321 11.5994 -0.312482 0 0 -0 
397 2 7.98094 11.1877 16.5336 0 0 0 
398 1 7.16644 11.765 16.5912 0 0 0 
399 1 8.07133 10.8307 15.6038 -0 -0 -0 
430 2 8.22558 10.8387 13.7804 0 0 0 
431 1 8.97265 11.4547 13.5306 -0 0 -0 
432 1 7.46147 10.968 13.1484 -0 0 -0 
433 2 10.8434 8.39297 15.0586 -0 0 -0 
434 1 11.1295 7.97145 15.9191 0 -0 0 
435 1 11.641 8.52277 14.4696 0 -0 0 
384 1 11.6764 12.4991 18.7262 0 -0 0 
164 1 17.2703 6.42497 16.1263 -0 0 -0 
180 1 12.5396 7.6509 17.6435 -0 -0 -0 
100 2 14.0725 6.65794 12.806 -0 -0 -0 
101 1 13.6607 7.55839 12.946 0 0 -0 
277 2 16.8712 10.5527 14.7213 0 -0 -0 
278 1 16.1278 11.2136 14.6191 -0 0 -0 
279 1 17.3684 10.474 13.8572 -0 0 -0 
418 2 13.6278 10.5804 15.9161 0 -0 -0 
419 1 14.2251 11.1654 16.4648 -0 -0 -0 
420 1 12.6898 10.9239 15.9635 0 0 0 
421 2 14.3441 8.14854 17.6494 -0 -0 0 
422 1 14.897 7.35019 17.4108 -0 0 -0 
423 1 14.3914 8.81989 16.9098 -0 0 -0 
436 2 13.0431 9.09159 13.6129 0 -0 0 
437 1 12.9681 9.66297 12.7957 0 -0 -0 
438 1 13.4276 9.63063 14.3623 0 -0 0 
508 2 16.8658 7.77767 15.0798 0 0 0 
509 1 16.7389 7.50236 14.1268 0 -0 0 
510 1 16.8554 8.77564 15.1426 -0 0 0 
572 1 2.96099 -0.0863827 15.4813 0 0 0 
166 2 0.611525 12.6698 13.5885 0 -0 -0 
64 2 5.38787 13.365 13.7456 -0 0 -0 
65 1 5.9916 14.0889 13.4119 0 0 0 
66 1 4.43516 13.6334 13.6031 0 -0 -0 
115 2 5.76141 12.8667 16.3865 0 -0 -0 
116 1 4.88425 13.0629 16.8248 -0 0 -0 
117 1 5.66832 12.965 15.3957 -0 -0 0 
129 1 6.21704 14.6839 17.0697 0 0 -0 
138 1 19.0245 16.3684 17.7804 0 -0 0 
234 1 2.55307 12.5459 16.2165 -0 0 -0 
319 2 0.991581 16.0779 16.1097 -0 -0 -0 
320 1 1.12126 15.0864 16.1022 -0 0 0 
321 1 0.14816 16.3074 15.624 0 -0 0 
376 2 3.23176 17.047 18.2279 0 -0 -0 
377 1 4.07128 17.4472 18.5955 0 -0 -0 
443 1 5.66267 17.6803 14.6073 -0 -0 0 
555 1 1.46496 -0.0773658 13.1239 -0 0 0 
556 2 3.26303 13.9243 17.1425 -0 -0 0 
557 1 3.26842 13.5302 18.0615 0 0 0 
558 1 3.33322 14.9198 17.2064 0 0 -0 
573 1 2.58754 -0.585149 16.9907 -0 0 0 
574 2 3.15052 16.8528 14.4367 -0 0 0 
575 1 2.43877 16.6999 15.1223 -0 -0 -0 
576 1 3.19112 16.0685 13.8177 -0 0 0 
586 2 2.87778 14.3397 13.1448 -0 0 -0 
587 1 1.99058 13.8941 13.2648 0 -0 -0 
381 1 6.82058 16.5074 -0.0709417 -0 -0 -0 
127 2 6.51691 15.6236 17.2342 0 0 0 
128 1 6.38894 16.1647 16.403 0 0 0 
148 2 11.6142 17.1704 14.4339 0 0 0 
149 1 12.184 17.1232 15.2543 -0 0 -0 
150 1 10.739 17.5981 14.6601 -0 -0 0 
271 2 10.6795 13.7092 15.5098 0 0 0 
272 1 10.6485 12.7103 15.5461 0 0 0 
273 1 9.97613 14.0866 16.1121 -0 -0 0 
295 2 9.97509 15.5207 12.5916 -0 0 -0 
296 1 10.5164 15.9581 13.3097 -0 0 0 
309 1 12.3125 14.1022 14.7889 0 0 -0 
322 2 8.95556 14.2764 17.6728 -0 0 -0 
323 1 8.57322 13.5184 18.2012 -0 -0 -0 
324 1 8.23121 14.9314 17.4575 0 -0 -0 
382 2 12.1038 13.1661 18.1159 0 0 -0 
383 1 11.4736 13.389 17.3721 -0 0 -0 
442 2 6.51125 17.2039 14.8375 -0 -0 0 
444 1 6.71655 16.5279 14.1298 0 -0 -0 
457 2 9.16133 18.2587 14.974 0 0 -0 
459 1 8.2438 17.8611 14.9632 -0 -0 -0 
559 2 7.1216 15.4137 12.7928 0 0 0 
561 1 8.1215 15.4054 12.782 -0 -0 -0 
628 2 9.22772 18.3189 18.2245 0 -0 -0 
629 1 10.1584 17.9548 18.2605 0 -0 -0 
579 1 12.2336 -0.558461 13.2296 0 -0 -0 
112 2 14.7187 16.4846 13.5264 -0 0 -0 
113 1 14.4623 17.4202 13.2837 -0 -0 0 
114 1 13.8955 15.9216 13.5995 0 0 -0 
136 2 18.4646 16.2814 18.6043 0 0 -0 
145 2 17.5188 13.3868 15.6504 -0 0 -0 
146 1 17.9849 13.2931 14.7707 0 -0 -0 
147 1 17.8206 12.6594 16.2667 0 -0 0 
307 2 13.278 14.3604 14.7544 0 -0 -0 
308 1 13.4459 15.1091 15.3957 0 0 0 
385 2 13.3912 16.9975 16.5876 0 0 -0 
386 1 14.3791 16.916 16.7191 0 -0 -0 
387 1 13.0121 17.6106 17.2807 -0 -0 -0 
403 2 15.101 12.8449 17.1199 -0 0 0 
404 1 15.8351 13.1363 16.5065 -0 -0 0 
405 1 14.2255 13.1859 16.7774 -0 0 -0 
478 2 16.9726 16.0851 15.1048 0 0 0 
479 1 16.1025 16.2449 14.6387 0 -0 0 
480 1 17.0283 15.1277 15.3879 0 0 0 
493 2 15.0851 12.6637 13.431 -0 -0 0 
494 1 14.4788 13.2696 13.9462 -0 0 -0 
495 1 15.6637 13.2086 12.8241 -0 -0 0 
568 2 18.3921 17.3767 13.2406 0 0 -0 
569 1 17.742 17.9838 12.7838 -0 0 0 
570 1 17.9417 16.9245 14.0105 -0 0 -0 
646 2 15.9844 17.5121 17.9158 0 -0 -0 
647 1 16.7756 16.9063 17.9995 -0 -0 -0 
648 1 16.0755 18.2704 18.5614 -0 -0 -0 
ITEM: TIMESTEP
1000
ITEM: NUMBER OF ATOMS
648
ITEM: BOX BOUNDS pp pp pp
0.0000000000000000e+00 1.8774349999999998e+01
0.0000000000000000e+00 1.8774349999999998e+01
0.0000000000000000e+00 1.8774349999999998e+01
ITEM: ATOMS id type xu yu zu vx vy vz 
16 2 2.3125 5.67194 3.83907 -6.67754e-05 -0.000417264 0.000193534 
17 1 1.31632 5.66333 3.92596 -0.000116472 -0.000429407 -0.000377317 
18 1 2.56338 5.60882 2.87311 0.000470375 0.000749715 0.000256756 
34 2 4.22034 4.11362 5.14371 -0.00113026 -0.00356585 -0.000819634 
35 1 4.0127 4.19699 6.11835 0.000973244 -0.00175735 -0.000525852 
36 1 3.54031 4.62003 4.61352 -0.00154356 -0.00349863 -0.000225329 
300 1 2.61205 0.479754 5.1971 -0.000964192 0.00104902 1.45952e-05 
352 2 5.89871 4.18957 2.89567 8.53277e-05 0.000192196 0.0023461 
354 1 5.49593 4.35174 3.79648 0.0001412 0.000245515 0.00236148 
456 1 5.27175 4.21728 1.31661 0.000345571 -0.00122138 0.00165641 
526 2 2.60961 5.56434 1.08736 -0.000952807 -0.000476493 0.00237881 
527 1 3.39248 5.04416 0.746003 -0.000489654 -7.40374e-05 0.00282758 
528 1 1.79162 5.31385 0.569541 -0.000456896 -0.000635397 0.00167226 
529 2 2.3272 0.73026 0.840016 0.00021537 0.00213152 0.00119225 
530 1 2.89799 1.31101 1.42047 0.000989271 0.000630398 0.0019331 
545 1 19.555 1.35923 1.06259 0.000246484 0.00294389 0.00143764 
607 2 1.81047 1.93161 4.61757 -0.00116376 0.00255032 -0.00144936 
608 1 2.54315 2.10513 3.95948 -0.00104155 0.00356343 -0.0010462 
609 1 0.954241 2.31562 4.27202 -0.00133411 0.0020884 -0.00154046 
622 2 3.81769 2.14509 2.69481 0.000757168 0.00189874 0.00158866 
623 1 4.30665 1.27603 2.61972 0.00105717 0.00191255 0.00338286 
624 1 4.47702 2.89264 2.7752 0.000469799 0.00210354 0.00204096 
626 1 5.54636 1.00248 5.32249 0.00424213 -7.97738e-05 -0.00323192 
627 1 5.21927 2.59613 5.18135 0.00236449 -0.000465979 -0.00324067 
625 2 5.94451 1.90767 5.17379 0.00317358 0.000386546 -0.00325417 
454 2 4.8088 4.2774 0.432262 0.00181784 2.70128e-06 0.000968965 
531 1 2.83784 0.475082 0.0189586 0.000752093 0.000456779 0.00204687 
91 2 10.2133 4.79923 1.30026 0.000677812 0.00187788 -0.00188436 
92 1 9.5447 5.35526 1.79401 9.12847e-08 0.00182456 -0.00274193 
93 1 11.0947 5.27149 1.28685 0.000567101 0.00210803 -0.00105611 
181 2 7.8975 1.34619 3.33132 0.00330663 -0.00212208 -0.00108469 
182 1 7.14786 1.51984 3.96997 0.00486602 -0.000112463 0.000199126 
183 1 8.39257 0.524575 3.61393 0.00315614 -0.00200615 -0.000484026 
197 1 12.486 5.12258 5.34805 -0.00115994 -0.00301034 -0.00070544 
220 2 8.15659 6.10105 2.62891 -0.0021928 -9.38881e-05 -0.000425237 
250 2 10.3605 2.46872 2.69675 -2.29615e-05 0.00172897 -0.00305866 
251 1 9.44918 2.05926 2.73854 0.000726865 -6.03324e-05 -0.00423568 
252 1 10.3268 3.30136 2.14396 -0.00118005 0.002286 -0.00214895 
340 2 7.03184 6.21015 5.10228 -0.000411912 0.000931711 0.000890599 
342 1 7.41915 5.36209 5.46391 0.000561181 0.002034 0.00243383 
347 1 11.1486 2.18313 4.28988 -0.00111563 0.000273311 -0.00141785 
353 1 6.75198 4.70467 2.81445 -0.0003568 0.000861379 0.00194595 
453 1 11.8414 1.62257 2.28434 -0.000426467 -0.00185195 -0.000889714 
460 2 7.38904 1.86146 0.653346 -0.000125669 -0.00221533 -7.43836e-05 
461 1 6.46366 1.78985 0.281131 6.60417e-05 -0.00238098 -0.000519134 
462 1 7.35926 1.74238 1.64578 -0.00050765 -0.0028149 -0.000157735 
190 2 12.3304 6.13558 4.03332 -0.00135502 -0.00372517 -0.000901353 
198 1 11.9992 3.67451 5.92489 -0.00175074 -0.00187958 0.00163473 
346 2 11.5714 2.05624 5.1872 -0.000799396 -0.00127132 -0.00178531 
610 2 8.06 3.66498 5.52657 4.1483e-05 0.000813603 -0.00141902 
611 1 7.26491 3.05921 5.55616 0.000305379 0.000404423 -0.00270949 
612 1 8.6822 3.36326 4.80419 -0.00102793 0.00411827 -0.00371971 
630 1 8.30491 19.0879 19.2566 -0.00207983 0.000499054 0.00278804 
517 2 -0.434404 5.90837 3.56044 0.000181939 0.000558485 0.000774591 
549 1 18.3626 4.07668 3.5431 -0.00176797 0.00137841 0.00399309 
258 1 13.4964 4.774 1.34719 0.00175764 -0.00135434 -0.00122395 
334 2 15.7735 2.18583 3.54589 0.000361035 0.000771538 0.000205903 
335 1 15.3405 2.72655 2.82471 -0.000465413 -0.00103818 -0.000654465 
336 1 15.2587 2.2918 4.39663 0.000169855 0.00129828 2.45927e-05 
451 2 12.729 1.16887 2.20518 -0.000121728 -0.00153801 0.000728281 
452 1 12.6858 0.272651 2.64669 -0.000325947 -0.00114702 0.00150186 
499 2 14.4393 3.24277 1.30241 0.00116971 -0.00173891 0.000250186 
500 1 15.1173 2.86111 0.674132 5.68691e-05 -0.00249472 -0.000491388 
501 1 13.7713 2.53775 1.54033 0.000708663 -0.00102545 0.00106981 
533 1 16.6684 5.95068 6.13753 0.00310582 0.00131267 0.00251062 
544 2 18.6112 1.58514 1.30391 -0.000246906 0.00139283 0.000960134 
546 1 18.6069 2.20176 2.09115 -0.00161993 0.00237407 0.000184099 
547 2 18.3795 3.07773 3.58573 -0.00142431 0.0012625 0.00113192 
548 1 17.4454 2.73202 3.67453 -0.00135803 0.000657404 -0.000526134 
617 1 15.4631 0.425007 3.32472 -0.00119606 0.00106223 -3.08313e-06 