timestep	2.0

#compute         atomPE all pe/atom
#compute         atomKE all ke/atom
#variable        atomEng atom c_atomPE+c_atomKE

print "================================================"
================================================
print "NVT dynamics for 20ps dumping velocities"
NVT dynamics for 20ps dumping velocities
print "================================================"
================================================
thermo          2
thermo_style    custom etotal ke temp pe ebond eangle edihed eimp evdwl ecoul elong press vol
thermo_modify	line multi
fix             1 all nvt temp 300.0 300.0 100.0
dump            1 all custom 2 ${sname}.2pt.lammps id type xu yu zu vx vy vz
dump            1 all custom 2 watbox.spc.2pt.lammps id type xu yu zu vx vy vz
run             10000
PPPM initialization ...
WARNING: Using 12-bit tables for long-range coulomb (../kspace.cpp:321)
  G vector (1/distance) = 0.304233
  grid = 16 16 16
  stencil order = 5
  estimated absolute RMS force accuracy = 0.00323585
  estimated relative force accuracy = 9.74466e-06
  using double precision FFTs
  3d grid and FFT values/proc = 12167 4096
SHAKE stats (type/ave/delta) on step 110000
  1 0.999996 5.82394e-06
  1 109.47 0.000799823
Per MPI rank memory allocation (min/avg/max) = 10.85 | 10.85 | 10.85 Mbytes
---------------- Step   110000 ----- CPU =      0.0000 (sec) ----------------
TotEng   =     -1983.2174 KinEng   =       407.3143 Temp     =       317.0429 
PotEng   =     -2390.5317 E_bond   =         0.0000 E_angle  =         0.0000 
E_dihed  =         0.0000 E_impro  =         0.0000 E_vdwl   =       436.5902 
E_coul   =     10429.7875 E_long   =    -13256.9094 Press    =      -666.7191 
Volume   =      6427.4873 
---------------- Step   110002 ----- CPU =      0.0108 (sec) ----------------
TotEng   =     -1983.2519 KinEng   =       404.1309 Temp     =       314.5651 
PotEng   =     -2387.3829 E_bond   =         0.0000 E_angle  =         0.0000 
E_dihed  =         0.0000 E_impro  =         0.0000 E_vdwl   =       438.4275 
E_coul   =     10430.5133 E_long   =    -13256.3237 Press    =      -590.5383 
Volume   =      6427.4873 
---------------- Step   110004 ----- CPU =      0.0218 (sec) ----------------
TotEng   =     -1983.2295 KinEng   =       396.1412 Temp     =       308.3461 
PotEng   =     -2379.3707 E_bond   =         0.0000 E_angle  =         0.0000 
E_dihed  =         0.0000 E_impro  =         0.0000 E_vdwl   =       441.3644 
E_coul   =     10434.0819 E_long   =    -13254.8171 Press    =      -433.7762 
Volume   =      6427.4873 
---------------- Step   110006 ----- CPU =      0.0324 (sec) ----------------
TotEng   =     -1983.3138 KinEng   =       389.4597 Temp     =       303.1454 
PotEng   =     -2372.7735 E_bond   =         0.0000 E_angle  =         0.0000 
E_dihed  =         0.0000 E_impro  =         0.0000 E_vdwl   =       444.2719 
E_coul   =     10437.3544 E_long   =    -13254.3998 Press    =      -308.1870 
Volume   =      6427.4873 
---------------- Step   110008 ----- CPU =      0.0434 (sec) ----------------
TotEng   =     -1983.5502 KinEng   =       387.9428 Temp     =       301.9647 
PotEng   =     -2371.4930 E_bond   =         0.0000 E_angle  =         0.0000 
E_dihed  =         0.0000 E_impro  =         0.0000 E_vdwl   =       445.8848 
E_coul   =     10438.4757 E_long   =    -13255.8535 Press    =      -292.0885 
Volume   =      6427.4873 
---------------- Step   110010 ----- CPU =      0.0541 (sec) ----------------
TotEng   =     -1983.8187 KinEng   =       388.2564 Temp     =       302.2087 
PotEng   =     -2372.0750 E_bond   =         0.0000 E_angle  =         0.0000 
E_dihed  =         0.0000 E_impro  =         0.0000 E_vdwl   =       445.6920 
E_coul   =     10439.6891 E_long   =    -13257.4560 Press    =      -340.0033 
Volume   =      6427.4873 
---------------- Step   110012 ----- CPU =      0.0647 (sec) ----------------
TotEng   =     -1983.9229 KinEng   =       385.2650 Temp     =       299.8803 
PotEng   =     -2369.1879 E_bond   =         0.0000 E_angle  =         0.0000 
E_dihed  =         0.0000 E_impro  =         0.0000 E_vdwl   =       444.3483 
E_coul   =     10443.8684 E_long   =    -13257.4047 Press    =      -354.7805 
Volume   =      6427.4873 
---------------- Step   110014 ----- CPU =      0.0812 (sec) ----------------
TotEng   =     -1983.9175 KinEng   =       381.6136 Temp     =       297.0382 
PotEng   =     -2365.5311 E_bond   =         0.0000 E_angle  =         0.0000 
E_dihed  =         0.0000 E_impro  =         0.0000 E_vdwl   =       442.7213 
E_coul   =     10448.0726 E_long   =    -13256.3250 Press    =      -347.2633 
Volume   =      6427.4873 
---------------- Step   110016 ----- CPU =      0.0918 (sec) ----------------
TotEng   =     -1984.0384 KinEng   =       385.3219 Temp     =       299.9246 
PotEng   =     -2369.3602 E_bond   =         0.0000 E_angle  =         0.0000 
E_dihed  =         0.0000 E_impro  =         0.0000 E_vdwl   =       440.6746 
E_coul   =     10445.9530 E_long   =    -13255.9879 Press    =      -437.5349 
Volume   =      6427.4873 
---------------- Step   110018 ----- CPU =      0.1026 (sec) ----------------
TotEng   =     -1984.4780 KinEng   =       396.0558 Temp     =       308.2796 
PotEng   =     -2380.5338 E_bond   =         0.0000 E_angle  =         0.0000 
E_dihed  =         0.0000 E_impro  =         0.0000 E_vdwl   =       437.5933 
E_coul   =     10438.3897 E_long   =    -13256.5168 Press    =      -657.1426 
Volume   =      6427.4873 
---------------- Step   110020 ----- CPU =      0.1134 (sec) ----------------
TotEng   =     -1984.7849 KinEng   =       400.2673 Temp     =       311.5577 
PotEng   =     -2385.0522 E_bond   =         0.0000 E_angle  =         0.0000 
E_dihed  =         0.0000 E_impro  =         0.0000 E_vdwl   =       433.7775 
E_coul   =     10437.4174 E_long   =    -13256.2471 Press    =      -808.1350 
Volume   =      6427.4873 
---------------- Step   110022 ----- CPU =      0.1239 (sec) ----------------
TotEng   =     -1984.8221 KinEng   =       392.2168 Temp     =       305.2914 
PotEng   =     -2377.0389 E_bond   =         0.0000 E_angle  =         0.0000 
E_dihed  =         0.0000 E_impro  =         0.0000 E_vdwl   =       430.1127 
E_coul   =     10447.5725 E_long   =    -13254.7241 Press    =      -791.9739 
Volume   =      6427.4873 
---------------- Step   110024 ----- CPU =      0.1346 (sec) ----------------
TotEng   =     -1984.9007 KinEng   =       382.1651 Temp     =       297.4674 
PotEng   =     -2367.0657 E_bond   =         0.0000 E_angle  =         0.0000 
E_dihed  =         0.0000 E_impro  =         0.0000 E_vdwl   =       426.9381 
E_coul   =     10459.6842 E_long   =    -13253.6881 Press    =      -749.7492 
Volume   =      6427.4873 
---------------- Step   110026 ----- CPU =      0.1453 (sec) ----------------
TotEng   =     -1985.1635 KinEng   =       379.9298 Temp     =       295.7276 
PotEng   =     -2365.0934 E_bond   =         0.0000 E_angle  =         0.0000 
E_dihed  =         0.0000 E_impro  =         0.0000 E_vdwl   =       424.2606 
E_coul   =     10465.0244 E_long   =    -13254.3784 Press    =      -807.8703 
Volume   =      6427.4873 
---------------- Step   110028 ----- CPU =      0.1558 (sec) ----------------
TotEng   =     -1985.5393 KinEng   =       385.3040 Temp     =       299.9107 
PotEng   =     -2370.8433 E_bond   =         0.0000 E_angle  =         0.0000 
E_dihed  =         0.0000 E_impro  =         0.0000 E_vdwl   =       422.3863 
E_coul   =     10462.9561 E_long   =    -13256.1856 Press    =      -931.0166 
Volume   =      6427.4873 
---------------- Step   110030 ----- CPU =      0.1719 (sec) ----------------
TotEng   =     -1985.9108 KinEng   =       391.5883 Temp     =       304.8022 
PotEng   =     -2377.4990 E_bond   =         0.0000 E_angle  =         0.0000 
E_dihed  =         0.0000 E_impro  =         0.0000 E_vdwl   =       421.7743 
E_coul   =     10458.6549 E_long   =    -13257.9283 Press    =     -1007.0086 
Volume   =      6427.4873 
---------------- Step   110032 ----- CPU =      0.1828 (sec) ----------------
TotEng   =     -1986.2583 KinEng   =       392.3629 Temp     =       305.4052 
PotEng   =     -2378.6212 E_bond   =         0.0000 E_angle  =         0.0000 
E_dihed  =         0.0000 E_impro  =         0.0000 E_vdwl   =       422.7137 
E_coul   =     10457.6638 E_long   =    -13258.9986 Press    =      -953.4454 
Volume   =      6427.4873 
---------------- Step   110034 ----- CPU =      0.1935 (sec) ----------------
TotEng   =     -1986.4524 KinEng   =       384.9486 Temp     =       299.6340 
PotEng   =     -2371.4010 E_bond   =         0.0000 E_angle  =         0.0000 
E_dihed  =         0.0000 E_impro  =         0.0000 E_vdwl   =       425.2294 
E_coul   =     10462.7381 E_long   =    -13259.3685 Press    =      -742.8511 
Volume   =      6427.4873 
---------------- Step   110036 ----- CPU =      0.2040 (sec) ----------------
TotEng   =     -1986.6455 KinEng   =       374.9368 Temp     =       291.8411 
PotEng   =     -2361.5823 E_bond   =         0.0000 E_angle  =         0.0000 
E_dihed  =         0.0000 E_impro  =         0.0000 E_vdwl   =       429.0607 
E_coul   =     10468.5285 E_long   =    -13259.1716 Press    =      -477.0639 
Volume   =      6427.4873 
---------------- Step   110038 ----- CPU =      0.2148 (sec) ----------------
TotEng   =     -1986.9157 KinEng   =       368.8763 Temp     =       287.1238 
PotEng   =     -2355.7921 E_bond   =         0.0000 E_angle  =         0.0000 
E_dihed  =         0.0000 E_impro  =         0.0000 E_vdwl   =       433.6467 
E_coul   =     10468.8553 E_long   =    -13258.2940 Press    =      -274.9358 
Volume   =      6427.4873 
---------------- Step   110040 ----- CPU =      0.2257 (sec) ----------------
TotEng   =     -1987.1446 KinEng   =       368.0423 Temp     =       286.4746 
PotEng   =     -2355.1869 E_bond   =         0.0000 E_angle  =         0.0000 
E_dihed  =         0.0000 E_impro  =         0.0000 E_vdwl   =       437.9369 
E_coul   =     10463.7620 E_long   =    -13256.8858 Press    =      -190.2565 
Volume   =      6427.4873 
---------------- Step   110042 ----- CPU =      0.2362 (sec) ----------------
TotEng   =     -1987.4457 KinEng   =       371.9689 Temp     =       289.5310 
PotEng   =     -2359.4146 E_bond   =         0.0000 E_angle  =         0.0000 
E_dihed  =         0.0000 E_impro  =         0.0000 E_vdwl   =       440.4582 
E_coul   =     10455.9063 E_long   =    -13255.7791 Press    =      -259.8808 
Volume   =      6427.4873 
---------------- Step   110044 ----- CPU =      0.2522 (sec) ----------------
TotEng   =     -1987.7684 KinEng   =       375.3353 Temp     =       292.1513 
PotEng   =     -2363.1037 E_bond   =         0.0000 E_angle  =         0.0000 
E_dihed  =         0.0000 E_impro  =         0.0000 E_vdwl   =       440.4802 
E_coul   =     10451.6536 E_long   =    -13255.2375 Press    =      -405.1215 
Volume   =      6427.4873 
---------------- Step   110046 ----- CPU =      0.2632 (sec) ----------------
TotEng   =     -1987.8640 KinEng   =       371.4620 Temp     =       289.1364 
PotEng   =     -2359.3261 E_bond   =         0.0000 E_angle  =         0.0000 
E_dihed  =         0.0000 E_impro  =         0.0000 E_vdwl   =       438.4434 
E_coul   =     10457.0343 E_long   =    -13254.8038 Press    =      -473.8352 
Volume   =      6427.4873 
---------------- Step   110048 ----- CPU =      0.2739 (sec) ----------------
TotEng   =     -1987.7499 KinEng   =       364.1081 Temp     =       283.4124 
PotEng   =     -2351.8580 E_bond   =         0.0000 E_angle  =         0.0000 
E_dihed  =         0.0000 E_impro  =         0.0000 E_vdwl   =       434.7917 
E_coul   =     10467.9947 E_long   =    -13254.6444 Press    =      -485.8066 
Volume   =      6427.4873 
---------------- Step   110050 ----- CPU =      0.2846 (sec) ----------------
TotEng   =     -1987.7385 KinEng   =       363.9582 Temp     =       283.2957 
PotEng   =     -2351.6967 E_bond   =         0.0000 E_angle  =         0.0000 
E_dihed  =         0.0000 E_impro  =         0.0000 E_vdwl   =       429.7433 
E_coul   =     10473.9381 E_long   =    -13255.3781 Press    =      -602.0484 
Volume   =      6427.4873 
---------------- Step   110052 ----- CPU =      0.2957 (sec) ----------------
TotEng   =     -1987.8300 KinEng   =       373.8566 Temp     =       291.0004 
PotEng   =     -2361.6867 E_bond   =         0.0000 E_angle  =         0.0000 
E_dihed  =         0.0000 E_impro  =         0.0000 E_vdwl   =       424.1948 
E_coul   =     10471.0171 E_long   =    -13256.8986 Press    =      -861.6177 
Volume   =      6427.4873 
---------------- Step   110054 ----- CPU =      0.3065 (sec) ----------------
TotEng   =     -1987.9248 KinEng   =       387.7154 Temp     =       301.7877 
PotEng   =     -2375.6402 E_bond   =         0.0000 E_angle  =         0.0000 
E_dihed  =         0.0000 E_impro  =         0.0000 E_vdwl   =       419.6675 
E_coul   =     10463.0238 E_long   =    -13258.3315 Press    =     -1161.3012 
Volume   =      6427.4873 
---------------- Step   110056 ----- CPU =      0.3230 (sec) ----------------
TotEng   =     -1987.9783 KinEng   =       396.8754 Temp     =       308.9175 
PotEng   =     -2384.8536 E_bond   =         0.0000 E_angle  =         0.0000 
E_dihed  =         0.0000 E_impro  =         0.0000 E_vdwl   =       417.3871 
E_coul   =     10456.5606 E_long   =    -13258.8013 Press    =     -1357.0370 
Volume   =      6427.4873 
---------------- Step   110058 ----- CPU =      0.3338 (sec) ----------------
TotEng   =     -1987.8961 KinEng   =       395.9879 Temp     =       308.2268 
PotEng   =     -2383.8840 E_bond   =         0.0000 E_angle  =         0.0000 
E_dihed  =         0.0000 E_impro  =         0.0000 E_vdwl   =       417.6027 
E_coul   =     10456.6470 E_long   =    -13258.1337 Press    =     -1352.9788 
Volume   =      6427.4873 
---------------- Step   110060 ----- CPU =      0.3445 (sec) ----------------
TotEng   =     -1987.7553 KinEng   =       387.6849 Temp     =       301.7640 
PotEng   =     -2375.4402 E_bond   =         0.0000 E_angle  =         0.0000 
E_dihed  =         0.0000 E_impro  =         0.0000 E_vdwl   =       419.5867 
E_coul   =     10462.1346 E_long   =    -13257.1614 Press    =     -1200.6617 
Volume   =      6427.4873 
---------------- Step   110062 ----- CPU =      0.3555 (sec) ----------------
TotEng   =     -1987.7008 KinEng   =       378.7842 Temp     =       294.8359 
PotEng   =     -2366.4851 E_bond   =         0.0000 E_angle  =         0.0000 
E_dihed  =         0.0000 E_impro  =         0.0000 E_vdwl   =       422.1757 
E_coul   =     10468.0252 E_long   =    -13256.6859 Press    =     -1035.6747 
Volume   =      6427.4873 
---------------- Step   110064 ----- CPU =      0.3664 (sec) ----------------
TotEng   =     -1987.7171 KinEng   =       373.1462 Temp     =       290.4474 
PotEng   =     -2360.8633 E_bond   =         0.0000 E_angle  =         0.0000 
E_dihed  =         0.0000 E_impro  =         0.0000 E_vdwl   =       424.4252 
E_coul   =     10471.1260 E_long   =    -13256.4145 Press    =      -925.7475 
Volume   =      6427.4873 
---------------- Step   110066 ----- CPU =      0.3770 (sec) ----------------
TotEng   =     -1987.7123 KinEng   =       370.2651 Temp     =       288.2048 
PotEng   =     -2357.9775 E_bond   =         0.0000 E_angle  =         0.0000 
E_dihed  =         0.0000 E_impro  =         0.0000 E_vdwl   =       425.9215 
E_coul   =     10472.0814 E_long   =    -13255.9804 Press    =      -854.4953 
Volume   =      6427.4873 
---------------- Step   110068 ----- CPU =      0.3881 (sec) ----------------
TotEng   =     -1987.6226 KinEng   =       369.0336 Temp     =       287.2462 
PotEng   =     -2356.6561 E_bond   =         0.0000 E_angle  =         0.0000 
E_dihed  =         0.0000 E_impro  =         0.0000 E_vdwl   =       426.7112 
E_coul   =     10472.6030 E_long   =    -13255.9703 Press    =      -803.7531 
Volume   =      6427.4873 
---------------- Step   110070 ----- CPU =      0.3991 (sec) ----------------
TotEng   =     -1987.4855 KinEng   =       368.9741 Temp     =       287.1999 
PotEng   =     -2356.4596 E_bond   =         0.0000 E_angle  =         0.0000 
E_dihed  =         0.0000 E_impro  =         0.0000 E_vdwl   =       427.2707 
E_coul   =     10473.0433 E_long   =    -13256.7736 Press    =      -771.5759 
Volume   =      6427.4873 
---------------- Step   110072 ----- CPU =      0.4155 (sec) ----------------
TotEng   =     -1987.2601 KinEng   =       369.2783 Temp     =       287.4367 
PotEng   =     -2356.5384 E_bond   =         0.0000 E_angle  =         0.0000 
E_dihed  =         0.0000 E_impro  =         0.0000 E_vdwl   =       428.3890 
E_coul   =     10472.7612 E_long   =    -13257.6886 Press    =      -734.4962 
Volume   =      6427.4873 
---------------- Step   110074 ----- CPU =      0.4266 (sec) ----------------
TotEng   =     -1986.9723 KinEng   =       369.4081 Temp     =       287.5377 
PotEng   =     -2356.3804 E_bond   =         0.0000 E_angle  =         0.0000 
E_dihed  =         0.0000 E_impro  =         0.0000 E_vdwl   =       430.7340 
E_coul   =     10470.7248 E_long   =    -13257.8391 Press    =      -665.4270 
Volume   =      6427.4873 
---------------- Step   110076 ----- CPU =      0.4374 (sec) ----------------
TotEng   =     -1986.5713 KinEng   =       369.6257 Temp     =       287.7071 
PotEng   =     -2356.1970 E_bond   =         0.0000 E_angle  =         0.0000 
E_dihed  =         0.0000 E_impro  =         0.0000 E_vdwl   =       434.1322 
E_coul   =     10466.7481 E_long   =    -13257.0772 Press    =      -562.9721 
Volume   =      6427.4873 
---------------- Step   110078 ----- CPU =      0.4480 (sec) ----------------
TotEng   =     -1986.1081 KinEng   =       372.7369 Temp     =       290.1288 
PotEng   =     -2358.8450 E_bond   =         0.0000 E_angle  =         0.0000 
E_dihed  =         0.0000 E_impro  =         0.0000 E_vdwl   =       437.2942 
E_coul   =     10459.8188 E_long   =    -13255.9580 Press    =      -505.1314 
Volume   =      6427.4873 
---------------- Step   110080 ----- CPU =      0.4589 (sec) ----------------
TotEng   =     -1985.7404 KinEng   =       378.6016 Temp     =       294.6937 
PotEng   =     -2364.3420 E_bond   =         0.0000 E_angle  =         0.0000 
E_dihed  =         0.0000 E_impro  =         0.0000 E_vdwl   =       438.8773 
E_coul   =     10451.9281 E_long   =    -13255.1475 Press    =      -534.4328 
Volume   =      6427.4873 
---------------- Step   110082 ----- CPU =      0.4697 (sec) ----------------
TotEng   =     -1985.2082 KinEng   =       380.0109 Temp     =       295.7907 
PotEng   =     -2365.2190 E_bond   =         0.0000 E_angle  =         0.0000 
E_dihed  =         0.0000 E_impro  =         0.0000 E_vdwl   =       438.8425 
E_coul   =     10450.8778 E_long   =    -13254.9394 Press    =      -525.8418 
Volume   =      6427.4873 
---------------- Step   110084 ----- CPU =      0.4804 (sec) ----------------
TotEng   =     -1984.4608 KinEng   =       374.1450 Temp     =       291.2248 
PotEng   =     -2358.6058 E_bond   =         0.0000 E_angle  =         0.0000 
E_dihed  =         0.0000 E_impro  =         0.0000 E_vdwl   =       438.3205 
E_coul   =     10458.3368 E_long   =    -13255.2631 Press    =      -399.1072 
Volume   =      6427.4873 
---------------- Step   110086 ----- CPU =      0.4910 (sec) ----------------
TotEng   =     -1983.6070 KinEng   =       365.2792 Temp     =       284.3239 
PotEng   =     -2348.8863 E_bond   =         0.0000 E_angle  =         0.0000 
E_dihed  =         0.0000 E_impro  =         0.0000 E_vdwl   =       438.5169 
E_coul   =     10468.4738 E_long   =    -13255.8770 Press    =      -194.2019 
Volume   =      6427.4873 
---------------- Step   110088 ----- CPU =      0.5073 (sec) ----------------
TotEng   =     -1982.6386 KinEng   =       360.1008 Temp     =       280.2932 
PotEng   =     -2342.7395 E_bond   =         0.0000 E_angle  =         0.0000 
E_dihed  =         0.0000 E_impro  =         0.0000 E_vdwl   =       439.9787 
E_coul   =     10473.7054 E_long   =    -13256.4236 Press    =        -4.2946 
Volume   =      6427.4873 
---------------- Step   110090 ----- CPU =      0.5180 (sec) ----------------
TotEng   =     -1981.6495 KinEng   =       365.7996 Temp     =       284.7290 
PotEng   =     -2347.4491 E_bond   =         0.0000 E_angle  =         0.0000 
E_dihed  =         0.0000 E_impro  =         0.0000 E_vdwl   =       442.5787 
E_coul   =     10466.7876 E_long   =    -13256.8154 Press    =        49.0567 
Volume   =      6427.4873 
---------------- Step   110092 ----- CPU =      0.5287 (sec) ----------------
TotEng   =     -1980.7478 KinEng   =       382.6353 Temp     =       297.8334 
PotEng   =     -2363.3831 E_bond   =         0.0000 E_angle  =         0.0000 
E_dihed  =         0.0000 E_impro  =         0.0000 E_vdwl   =       445.7297 
E_coul   =     10448.1342 E_long   =    -13257.2471 Press    =       -63.7142 
Volume   =      6427.4873 
---------------- Step   110094 ----- CPU =      0.5395 (sec) ----------------
TotEng   =     -1979.7734 KinEng   =       398.2615 Temp     =       309.9965 
PotEng   =     -2378.0349 E_bond   =         0.0000 E_angle  =         0.0000 
E_dihed  =         0.0000 E_impro  =         0.0000 E_vdwl   =       448.6464 
E_coul   =     10430.8514 E_long   =    -13257.5327 Press    =      -186.6605 
Volume   =      6427.4873 
---------------- Step   110096 ----- CPU =      0.5503 (sec) ----------------
TotEng   =     -1978.3679 KinEng   =       398.4408 Temp     =       310.1361 
PotEng   =     -2376.8087 E_bond   =         0.0000 E_angle  =         0.0000 
E_dihed  =         0.0000 E_impro  =         0.0000 E_vdwl   =       450.7113 
E_coul   =     10429.6122 E_long   =    -13257.1323 Press    =      -125.1041 
Volume   =      6427.4873 
---------------- Step   110098 ----- CPU =      0.5612 (sec) ----------------
TotEng   =     -1976.7062 KinEng   =       386.9133 Temp     =       301.1633 
PotEng   =     -2363.6195 E_bond   =         0.0000 E_angle  =         0.0000 
E_dihed  =         0.0000 E_impro  =         0.0000 E_vdwl   =       451.6278 
E_coul   =     10440.8354 E_long   =    -13256.0826 Press    =        59.4426 
Volume   =      6427.4873 
---------------- Step   110100 ----- CPU =      0.5776 (sec) ----------------
TotEng   =     -1975.1551 KinEng   =       380.5653 Temp     =       296.2222 
PotEng   =     -2355.7204 E_bond   =         0.0000 E_angle  =         0.0000 
E_dihed  =         0.0000 E_impro  =         0.0000 E_vdwl   =       451.4279 
E_coul   =     10448.2562 E_long   =    -13255.4044 Press    =       136.4642 
Volume   =      6427.4873 
---------------- Step   110102 ----- CPU =      0.5884 (sec) ----------------
TotEng   =     -1973.8176 KinEng   =       390.1327 Temp     =       303.6693 
PotEng   =     -2363.9503 E_bond   =         0.0000 E_angle  =         0.0000 
E_dihed  =         0.0000 E_impro  =         0.0000 E_vdwl   =       450.3305 
E_coul   =     10441.8517 E_long   =    -13256.1325 Press    =       -11.5622 
Volume   =      6427.4873 
---------------- Step   110104 ----- CPU =      0.5991 (sec) ----------------
TotEng   =     -1972.6280 KinEng   =       409.8546 Temp     =       319.0203 
PotEng   =     -2382.4827 E_bond   =         0.0000 E_angle  =         0.0000 
E_dihed  =         0.0000 E_impro  =         0.0000 E_vdwl   =       448.5933 
E_coul   =     10426.7451 E_long   =    -13257.8210 Press    =      -286.8029 
Volume   =      6427.4873 
---------------- Step   110106 ----- CPU =      0.6102 (sec) ----------------
TotEng   =     -1971.2173 KinEng   =       421.8166 Temp     =       328.3312 
PotEng   =     -2393.0339 E_bond   =         0.0000 E_angle  =         0.0000 
E_dihed  =         0.0000 E_impro  =         0.0000 E_vdwl   =       446.5028 
E_coul   =     10419.0786 E_long   =    -13258.6154 Press    =      -440.4093 
Volume   =      6427.4873 
---------------- Step   110108 ----- CPU =      0.6209 (sec) ----------------
TotEng   =     -1969.4984 KinEng   =       416.5920 Temp     =       324.2645 
PotEng   =     -2386.0905 E_bond   =         0.0000 E_angle  =         0.0000 
E_dihed  =         0.0000 E_impro  =         0.0000 E_vdwl   =       444.2027 
E_coul   =     10427.2250 E_long   =    -13257.5181 Press    =      -358.2521 
Volume   =      6427.4873 
---------------- Step   110110 ----- CPU =      0.6318 (sec) ----------------
TotEng   =     -1967.8449 KinEng   =       404.4776 Temp     =       314.8349 
PotEng   =     -2372.3225 E_bond   =         0.0000 E_angle  =         0.0000 
E_dihed  =         0.0000 E_impro  =         0.0000 E_vdwl   =       441.8940 
E_coul   =     10441.3531 E_long   =    -13255.5696 Press    =      -196.8800 
Volume   =      6427.4873 
---------------- Step   110112 ----- CPU =      0.6483 (sec) ----------------
TotEng   =     -1966.4692 KinEng   =       398.4327 Temp     =       310.1298 
PotEng   =     -2364.9019 E_bond   =         0.0000 E_angle  =         0.0000 
E_dihed  =         0.0000 E_impro  =         0.0000 E_vdwl   =       440.4124 
E_coul   =     10449.0411 E_long   =    -13254.3554 Press    =      -127.2435 
Volume   =      6427.4873 
---------------- Step   110114 ----- CPU =      0.6590 (sec) ----------------
TotEng   =     -1965.2640 KinEng   =       399.9841 Temp     =       311.3373 
PotEng   =     -2365.2481 E_bond   =         0.0000 E_angle  =         0.0000 
E_dihed  =         0.0000 E_impro  =         0.0000 E_vdwl   =       440.4362 
E_coul   =     10448.6365 E_long   =    -13254.3208 Press    =      -152.8460 
Volume   =      6427.4873 
---------------- Step   110116 ----- CPU =      0.6699 (sec) ----------------
TotEng   =     -1963.9933 KinEng   =       403.2808 Temp     =       313.9034 
PotEng   =     -2367.2741 E_bond   =         0.0000 E_angle  =         0.0000 
E_dihed  =         0.0000 E_impro  =         0.0000 E_vdwl   =       441.2453 
E_coul   =     10446.0953 E_long   =    -13254.6147 Press    =      -191.0669 
Volume   =      6427.4873 
---------------- Step   110118 ----- CPU =      0.6808 (sec) ----------------
TotEng   =     -1962.6802 KinEng   =       406.2877 Temp     =       316.2439 
PotEng   =     -2368.9679 E_bond   =         0.0000 E_angle  =         0.0000 
E_dihed  =         0.0000 E_impro  =         0.0000 E_vdwl   =       441.2020 
E_coul   =     10444.4849 E_long   =    -13254.6549 Press    =      -239.1414 
Volume   =      6427.4873 
---------------- Step   110120 ----- CPU =      0.6916 (sec) ----------------
TotEng   =     -1961.5591 KinEng   =       409.3222 Temp     =       318.6059 
PotEng   =     -2370.8813 E_bond   =         0.0000 E_angle  =         0.0000 
E_dihed  =         0.0000 E_impro  =         0.0000 E_vdwl   =       439.5066 
E_coul   =     10444.4360 E_long   =    -13254.8239 Press    =      -318.2073 
Volume   =      6427.4873 
---------------- Step   110122 ----- CPU =      0.7084 (sec) ----------------
TotEng   =     -1960.4052 KinEng   =       407.0561 Temp     =       316.8420 
PotEng   =     -2367.4613 E_bond   =         0.0000 E_angle  =         0.0000 
E_dihed  =         0.0000 E_impro  =         0.0000 E_vdwl   =       436.7896 
E_coul   =     10451.0278 E_long   =    -13255.2786 Press    =      -324.7369 
Volume   =      6427.4873 
---------------- Step   110124 ----- CPU =      0.7194 (sec) ----------------
TotEng   =     -1959.1196 KinEng   =       398.4967 Temp     =       310.1796 
PotEng   =     -2357.6163 E_bond   =         0.0000 E_angle  =         0.0000 
E_dihed  =         0.0000 E_impro  =         0.0000 E_vdwl   =       434.1543 
E_coul   =     10463.7800 E_long   =    -13255.5506 Press    =      -229.9549 
Volume   =      6427.4873 
---------------- Step   110126 ----- CPU =      0.7302 (sec) ----------------
TotEng   =     -1957.9080 KinEng   =       392.6559 Temp     =       305.6332 
PotEng   =     -2350.5639 E_bond   =         0.0000 E_angle  =         0.0000 
E_dihed  =         0.0000 E_impro  =         0.0000 E_vdwl   =       432.4794 
E_coul   =     10472.3885 E_long   =    -13255.4318 Press    =      -164.8189 
Volume   =      6427.4873 
---------------- Step   110128 ----- CPU =      0.7413 (sec) ----------------
TotEng   =     -1956.9161 KinEng   =       399.1618 Temp     =       310.6973 
PotEng   =     -2356.0779 E_bond   =         0.0000 E_angle  =         0.0000 
E_dihed  =         0.0000 E_impro  =         0.0000 E_vdwl   =       432.3567 
E_coul   =     10466.9329 E_long   =    -13255.3675 Press    =      -246.7532 
Volume   =      6427.4873 
---------------- Step   110130 ----- CPU =      0.7524 (sec) ----------------
TotEng   =     -1956.2233 KinEng   =       416.4634 Temp     =       324.1644 
PotEng   =     -2372.6868 E_bond   =         0.0000 E_angle  =         0.0000 
E_dihed  =         0.0000 E_impro  =         0.0000 E_vdwl   =       434.3842 
E_coul   =     10448.6332 E_long   =    -13255.7042 Press    =      -426.0540 
Volume   =      6427.4873 
---------------- Step   110132 ----- CPU =      0.7633 (sec) ----------------
TotEng   =     -1955.5808 KinEng   =       428.4461 Temp     =       333.4914 
PotEng   =     -2384.0269 E_bond   =         0.0000 E_angle  =         0.0000 
E_dihed  =         0.0000 E_impro  =         0.0000 E_vdwl   =       439.1861 
E_coul   =     10432.8487 E_long   =    -13256.0617 Press    =      -446.8100 
Volume   =      6427.4873 
---------------- Step   110134 ----- CPU =      0.7796 (sec) ----------------
TotEng   =     -1954.6444 KinEng   =       419.9502 Temp     =       326.8784 
PotEng   =     -2374.5946 E_bond   =         0.0000 E_angle  =         0.0000 
E_dihed  =         0.0000 E_impro  =         0.0000 E_vdwl   =       446.7435 
E_coul   =     10434.3922 E_long   =    -13255.7303 Press    =       -88.9534 
Volume   =      6427.4873 
---------------- Step   110136 ----- CPU =      0.7904 (sec) ----------------
TotEng   =     -1953.5383 KinEng   =       397.7212 Temp     =       309.5759 
PotEng   =     -2351.2594 E_bond   =         0.0000 E_angle  =         0.0000 
E_dihed  =         0.0000 E_impro  =         0.0000 E_vdwl   =       456.1626 
E_coul   =     10447.3947 E_long   =    -13254.8168 Press    =       528.0418 
Volume   =      6427.4873 
---------------- Step   110138 ----- CPU =      0.8012 (sec) ----------------
TotEng   =     -1952.7163 KinEng   =       384.7296 Temp     =       299.4636 
PotEng   =     -2337.4459 E_bond   =         0.0000 E_angle  =         0.0000 
E_dihed  =         0.0000 E_impro  =         0.0000 E_vdwl   =       466.0604 
E_coul   =     10451.0097 E_long   =    -13254.5160 Press    =      1048.4905 
Volume   =      6427.4873 
---------------- Step   110140 ----- CPU =      0.8119 (sec) ----------------
TotEng   =     -1952.2934 KinEng   =       393.7350 Temp     =       306.4732 
PotEng   =     -2346.0284 E_bond   =         0.0000 E_angle  =         0.0000 
E_dihed  =         0.0000 E_impro  =         0.0000 E_vdwl   =       474.8442 
E_coul   =     10434.5854 E_long   =    -13255.4579 Press    =      1242.6081 
Volume   =      6427.4873 
---------------- Step   110142 ----- CPU =      0.8226 (sec) ----------------
TotEng   =     -1952.1155 KinEng   =       415.2268 Temp     =       323.2019 
PotEng   =     -2367.3423 E_bond   =         0.0000 E_angle  =         0.0000 
E_dihed  =         0.0000 E_impro  =         0.0000 E_vdwl   =       480.9370 
E_coul   =     10408.3392 E_long   =    -13256.6186 Press    =      1156.2791 
Volume   =      6427.4873 
---------------- Step   110144 ----- CPU =      0.8389 (sec) ----------------
TotEng   =     -1951.7875 KinEng   =       428.1917 Temp     =       333.2934 
PotEng   =     -2379.9792 E_bond   =         0.0000 E_angle  =         0.0000 
E_dihed  =         0.0000 E_impro  =         0.0000 E_vdwl   =       483.2851 
E_coul   =     10393.4713 E_long   =    -13256.7356 Press    =      1036.3189 
Volume   =      6427.4873 
---------------- Step   110146 ----- CPU =      0.8498 (sec) ----------------
TotEng   =     -1951.1995 KinEng   =       422.6890 Temp     =       329.0102 
PotEng   =     -2373.8886 E_bond   =         0.0000 E_angle  =         0.0000 
E_dihed  =         0.0000 E_impro  =         0.0000 E_vdwl   =       482.1839 
E_coul   =     10399.8684 E_long   =    -13255.9409 Press    =      1061.0716 
Volume   =      6427.4873 
---------------- Step   110148 ----- CPU =      0.8608 (sec) ----------------
TotEng   =     -1950.6202 KinEng   =       408.8531 Temp     =       318.2407 
PotEng   =     -2359.4733 E_bond   =         0.0000 E_angle  =         0.0000 
E_dihed  =         0.0000 E_impro  =         0.0000 E_vdwl   =       479.0801 
E_coul   =     10416.6245 E_long   =    -13255.1779 Press    =      1162.7373 
Volume   =      6427.4873 
---------------- Step   110150 ----- CPU =      0.8714 (sec) ----------------
TotEng   =     -1950.2980 KinEng   =       404.0890 Temp     =       314.5325 
PotEng   =     -2354.3871 E_bond   =         0.0000 E_angle  =         0.0000 
E_dihed  =         0.0000 E_impro  =         0.0000 E_vdwl   =       475.2263 
E_coul   =     10425.3283 E_long   =    -13254.9416 Press    =      1140.3160 
Volume   =      6427.4873 
---------------- Step   110152 ----- CPU =      0.8822 (sec) ----------------
TotEng   =     -1950.4110 KinEng   =       414.9661 Temp     =       322.9989 
PotEng   =     -2365.3770 E_bond   =         0.0000 E_angle  =         0.0000 
E_dihed  =         0.0000 E_impro  =         0.0000 E_vdwl   =       471.5561 
E_coul   =     10418.2197 E_long   =    -13255.1529 Press    =       905.3210 
Volume   =      6427.4873 
---------------- Step   110154 ----- CPU =      0.8931 (sec) ----------------
TotEng   =     -1950.7111 KinEng   =       429.8781 Temp     =       334.6060 
PotEng   =     -2380.5892 E_bond   =         0.0000 E_angle  =         0.0000 
E_dihed  =         0.0000 E_impro  =         0.0000 E_vdwl   =       469.4540 
E_coul   =     10405.4981 E_long   =    -13255.5414 Press    =       632.5061 
Volume   =      6427.4873 
---------------- Step   110156 ----- CPU =      0.9038 (sec) ----------------
TotEng   =     -1950.9048 KinEng   =       433.9894 Temp     =       337.8061 
PotEng   =     -2384.8942 E_bond   =         0.0000 E_angle  =         0.0000 
E_dihed  =         0.0000 E_impro  =         0.0000 E_vdwl   =       470.1856 
E_coul   =     10400.8853 E_long   =    -13255.9651 Press    =       568.8646 
Volume   =      6427.4873 
---------------- Step   110158 ----- CPU =      0.9201 (sec) ----------------
TotEng   =     -1951.0876 KinEng   =       425.3204 Temp     =       331.0585 
PotEng   =     -2376.4081 E_bond   =         0.0000 E_angle  =         0.0000 
E_dihed  =         0.0000 E_impro  =         0.0000 E_vdwl   =       473.7539 
E_coul   =     10406.2138 E_long   =    -13256.3757 Press    =       781.0153 
Volume   =      6427.4873 
---------------- Step   110160 ----- CPU =      0.9312 (sec) ----------------
TotEng   =     -1951.3907 KinEng   =       411.7634 Temp     =       320.5060 
PotEng   =     -2363.1541 E_bond   =         0.0000 E_angle  =         0.0000 
E_dihed  =         0.0000 E_impro  =         0.0000 E_vdwl   =       478.9231 
E_coul   =     10414.4289 E_long   =    -13256.5060 Press    =      1150.1792 
Volume   =      6427.4873 
---------------- Step   110162 ----- CPU =      0.9420 (sec) ----------------
TotEng   =     -1951.8763 KinEng   =       402.4127 Temp     =       313.2277 
PotEng   =     -2354.2890 E_bond   =         0.0000 E_angle  =         0.0000 
E_dihed  =         0.0000 E_impro  =         0.0000 E_vdwl   =       484.0244 
E_coul   =     10417.6356 E_long   =    -13255.9490 Press    =      1477.0353 
Volume   =      6427.4873 
---------------- Step   110164 ----- CPU =      0.9528 (sec) ----------------
TotEng   =     -1952.5717 KinEng   =       400.7712 Temp     =       311.9499 
PotEng   =     -2353.3428 E_bond   =         0.0000 E_angle  =         0.0000 
E_dihed  =         0.0000 E_impro  =         0.0000 E_vdwl   =       487.4915 
E_coul   =     10413.9758 E_long   =    -13254.8101 Press    =      1629.6420 
Volume   =      6427.4873 
---------------- Step   110166 ----- CPU =      0.9638 (sec) ----------------
TotEng   =     -1953.3856 KinEng   =       402.5751 Temp     =       313.3541 
PotEng   =     -2355.9608 E_bond   =         0.0000 E_angle  =         0.0000 
E_dihed  =         0.0000 E_impro  =         0.0000 E_vdwl   =       488.4285 
E_coul   =     10409.6238 E_long   =    -13254.0130 Press    =      1642.2263 
Volume   =      6427.4873 
---------------- Step   110168 ----- CPU =      0.9746 (sec) ----------------
TotEng   =     -1954.2182 KinEng   =       401.5604 Temp     =       312.5642 
PotEng   =     -2355.7786 E_bond   =         0.0000 E_angle  =         0.0000 
E_dihed  =         0.0000 E_impro  =         0.0000 E_vdwl   =       487.1110 
E_coul   =     10411.3005 E_long   =    -13254.1901 Press    =      1617.7824 
Volume   =      6427.4873 
---------------- Step   110170 ----- CPU =      0.9854 (sec) ----------------
TotEng   =     -1954.8589 KinEng   =       395.0242 Temp     =       307.4767 
PotEng   =     -2349.8832 E_bond   =         0.0000 E_angle  =         0.0000 
E_dihed  =         0.0000 E_impro  =         0.0000 E_vdwl   =       484.5687 
E_coul   =     10420.2623 E_long   =    -13254.7142 Press    =      1616.2742 
Volume   =      6427.4873 
---------------- Step   110172 ----- CPU =      0.9964 (sec) ----------------
TotEng   =     -1955.5664 KinEng   =       391.3046 Temp     =       304.5814 
PotEng   =     -2346.8710 E_bond   =         0.0000 E_angle  =         0.0000 
E_dihed  =         0.0000 E_impro  =         0.0000 E_vdwl   =       481.8031 
E_coul   =     10426.1311 E_long   =    -13254.8052 Press    =      1539.8582 
Volume   =      6427.4873 
---------------- Step   110174 ----- CPU =      1.0128 (sec) ----------------
TotEng   =     -1956.5942 KinEng   =       397.7278 Temp     =       309.5810 
PotEng   =     -2354.3220 E_bond   =         0.0000 E_angle  =         0.0000 
E_dihed  =         0.0000 E_impro  =         0.0000 E_vdwl   =       479.5218 
E_coul   =     10420.8166 E_long   =    -13254.6603 Press    =      1322.4645 
Volume   =      6427.4873 
---------------- Step   110176 ----- CPU =      1.0239 (sec) ----------------
TotEng   =     -1957.8177 KinEng   =       408.4600 Temp     =       317.9347 
PotEng   =     -2366.2777 E_bond   =         0.0000 E_angle  =         0.0000 
E_dihed  =         0.0000 E_impro  =         0.0000 E_vdwl   =       478.1288 
E_coul   =     10410.4369 E_long   =    -13254.8433 Press    =      1081.7522 
Volume   =      6427.4873 
---------------- Step   110178 ----- CPU =      1.0349 (sec) ----------------
TotEng   =     -1959.1143 KinEng   =       410.8919 Temp     =       319.8277 
PotEng   =     -2370.0062 E_bond   =         0.0000 E_angle  =         0.0000 
E_dihed  =         0.0000 E_impro  =         0.0000 E_vdwl   =       477.4607 
E_coul   =     10407.5321 E_long   =    -13254.9990 Press    =       981.5868 
Volume   =      6427.4873 
---------------- Step   110180 ----- CPU =      1.0456 (sec) ----------------
TotEng   =     -1960.0710 KinEng   =       398.0923 Temp     =       309.8647 
PotEng   =     -2358.1632 E_bond   =         0.0000 E_angle  =         0.0000 
E_dihed  =         0.0000 E_impro  =         0.0000 E_vdwl   =       476.6709 
E_coul   =     10419.7105 E_long   =    -13254.5447 Press    =      1102.8987 
Volume   =      6427.4873 
---------------- Step   110182 ----- CPU =      1.0567 (sec) ----------------
TotEng   =     -1960.9272 KinEng   =       383.5039 Temp     =       298.5095 
PotEng   =     -2344.4312 E_bond   =         0.0000 E_angle  =         0.0000 
E_dihed  =         0.0000 E_impro  =         0.0000 E_vdwl   =       474.6884 
E_coul   =     10435.2899 E_long   =    -13254.4095 Press    =      1227.4630 
Volume   =      6427.4873 
---------------- Step   110184 ----- CPU =      1.0678 (sec) ----------------
TotEng   =     -1962.2124 KinEng   =       384.7841 Temp     =       299.5060 
PotEng   =     -2346.9965 E_bond   =         0.0000 E_angle  =         0.0000 
E_dihed  =         0.0000 E_impro  =         0.0000 E_vdwl   =       471.1315 
E_coul   =     10437.5666 E_long   =    -13255.6945 Press    =      1081.3582 
Volume   =      6427.4873 
---------------- Step   110186 ----- CPU =      1.0843 (sec) ----------------
TotEng   =     -1963.8617 KinEng   =       397.3717 Temp     =       309.3039 
PotEng   =     -2361.2334 E_bond   =         0.0000 E_angle  =         0.0000 
E_dihed  =         0.0000 E_impro  =         0.0000 E_vdwl   =       466.7157 
E_coul   =     10429.6614 E_long   =    -13257.6105 Press    =       746.7856 
Volume   =      6427.4873 
---------------- Step   110188 ----- CPU =      1.0956 (sec) ----------------
TotEng   =     -1965.3327 KinEng   =       401.3608 Temp     =       312.4089 
PotEng   =     -2366.6935 E_bond   =         0.0000 E_angle  =         0.0000 
E_dihed  =         0.0000 E_impro  =         0.0000 E_vdwl   =       462.4394 
E_coul   =     10429.4604 E_long   =    -13258.5932 Press    =       543.9830 
Volume   =      6427.4873 
---------------- Step   110190 ----- CPU =      1.1064 (sec) ----------------
TotEng   =     -1966.4283 KinEng   =       390.5677 Temp     =       304.0078 
PotEng   =     -2356.9960 E_bond   =         0.0000 E_angle  =         0.0000 
E_dihed  =         0.0000 E_impro  =         0.0000 E_vdwl   =       458.8390 
E_coul   =     10442.4239 E_long   =    -13258.2589 Press    =       578.7869 
Volume   =      6427.4873 
---------------- Step   110192 ----- CPU =      1.1173 (sec) ----------------
TotEng   =     -1967.5845 KinEng   =       380.0083 Temp     =       295.7887 
PotEng   =     -2347.5928 E_bond   =         0.0000 E_angle  =         0.0000 
E_dihed  =         0.0000 E_impro  =         0.0000 E_vdwl   =       455.8411 
E_coul   =     10453.8075 E_long   =    -13257.2414 Press    =       620.6885 
Volume   =      6427.4873 
---------------- Step   110194 ----- CPU =      1.1281 (sec) ----------------
TotEng   =     -1969.0704 KinEng   =       383.0186 Temp     =       298.1318 
PotEng   =     -2352.0890 E_bond   =         0.0000 E_angle  =         0.0000 
E_dihed  =         0.0000 E_impro  =         0.0000 E_vdwl   =       452.6638 
E_coul   =     10451.4563 E_long   =    -13256.2091 Press    =       457.0039 
Volume   =      6427.4873 
---------------- Step   110196 ----- CPU =      1.1389 (sec) ----------------
TotEng   =     -1970.7239 KinEng   =       394.8719 Temp     =       307.3581 
PotEng   =     -2365.5958 E_bond   =         0.0000 E_angle  =         0.0000 
E_dihed  =         0.0000 E_impro  =         0.0000 E_vdwl   =       448.3823 
E_coul   =     10441.1918 E_long   =    -13255.1699 Press    =       140.4915 
Volume   =      6427.4873 
---------------- Step   110198 ----- CPU =      1.1497 (sec) ----------------
TotEng   =     -1972.2574 KinEng   =       402.9053 Temp     =       313.6111 
PotEng   =     -2375.1628 E_bond   =         0.0000 E_angle  =         0.0000 
E_dihed  =         0.0000 E_impro  =         0.0000 E_vdwl   =       442.7491 
E_coul   =     10436.1427 E_long   =    -13254.0545 Press    =      -153.4870 
Volume   =      6427.4873 
---------------- Step   110200 ----- CPU =      1.1604 (sec) ----------------
TotEng   =     -1973.7225 KinEng   =       404.6589 Temp     =       314.9761 
PotEng   =     -2378.3814 E_bond   =         0.0000 E_angle  =         0.0000 
E_dihed  =         0.0000 E_impro  =         0.0000 E_vdwl   =       436.0658 
E_coul   =     10439.1236 E_long   =    -13253.5708 Press    =      -385.0133 
Volume   =      6427.4873 
---------------- Step   110202 ----- CPU =      1.1770 (sec) ----------------
TotEng   =     -1975.2998 KinEng   =       406.3872 Temp     =       316.3213 
PotEng   =     -2381.6870 E_bond   =         0.0000 E_angle  =         0.0000 
E_dihed  =         0.0000 E_impro  =         0.0000 E_vdwl   =       428.8733 
E_coul   =     10443.4641 E_long   =    -13254.0244 Press    =      -626.6152 
Volume   =      6427.4873 
---------------- Step   110204 ----- CPU =      1.1876 (sec) ----------------
TotEng   =     -1977.1163 KinEng   =       411.1387 Temp     =       320.0198 
PotEng   =     -2388.2550 E_bond   =         0.0000 E_angle  =         0.0000 
E_dihed  =         0.0000 E_impro  =         0.0000 E_vdwl   =       422.0859 
E_coul   =     10444.2402 E_long   =    -13254.5811 Press    =      -904.5454 
Volume   =      6427.4873 
---------------- Step   110206 ----- CPU =      1.1984 (sec) ----------------
TotEng   =     -1978.9989 KinEng   =       413.0692 Temp     =       321.5224 
PotEng   =     -2392.0681 E_bond   =         0.0000 E_angle  =         0.0000 
E_dihed  =         0.0000 E_impro  =         0.0000 E_vdwl   =       416.6472 
E_coul   =     10446.0687 E_long   =    -13254.7839 Press    =     -1107.6266 
Volume   =      6427.4873 
---------------- Step   110208 ----- CPU =      1.2093 (sec) ----------------
TotEng   =     -1980.7399 KinEng   =       408.2560 Temp     =       317.7759 
PotEng   =     -2388.9959 E_bond   =         0.0000 E_angle  =         0.0000 
E_dihed  =         0.0000 E_impro  =         0.0000 E_vdwl   =       412.7912 
E_coul   =     10453.5478 E_long   =    -13255.3349 Press    =     -1157.3794 
Volume   =      6427.4873 
---------------- Step   110210 ----- CPU =      1.2199 (sec) ----------------
TotEng   =     -1982.5371 KinEng   =       401.8739 Temp     =       312.8083 
PotEng   =     -2384.4110 E_bond   =         0.0000 E_angle  =         0.0000 
E_dihed  =         0.0000 E_impro  =         0.0000 E_vdwl   =       409.9980 
E_coul   =     10462.2231 E_long   =    -13256.6321 Press    =     -1156.5556 
Volume   =      6427.4873 
---------------- Step   110212 ----- CPU =      1.2308 (sec) ----------------
TotEng   =     -1984.4124 KinEng   =       398.3764 Temp     =       310.0859 
PotEng   =     -2382.7889 E_bond   =         0.0000 E_angle  =         0.0000 
E_dihed  =         0.0000 E_impro  =         0.0000 E_vdwl   =       407.5674 
E_coul   =     10467.4945 E_long   =    -13257.8507 Press    =     -1207.0701 
Volume   =      6427.4873 
---------------- Step   110214 ----- CPU =      1.2418 (sec) ----------------
TotEng   =     -1986.3220 KinEng   =       396.4141 Temp     =       308.5585 
PotEng   =     -2382.7361 E_bond   =         0.0000 E_angle  =         0.0000 
E_dihed  =         0.0000 E_impro  =         0.0000 E_vdwl   =       405.1498 
E_coul   =     10470.0557 E_long   =    -13257.9417 Press    =     -1311.0621 
Volume   =      6427.4873 
---------------- Step   110216 ----- CPU =      1.2524 (sec) ----------------
TotEng   =     -1988.0814 KinEng   =       392.1846 Temp     =       305.2664 
PotEng   =     -2380.2660 E_bond   =         0.0000 E_angle  =         0.0000 
E_dihed  =         0.0000 E_impro  =         0.0000 E_vdwl   =       402.8885 
E_coul   =     10473.4646 E_long   =    -13256.6192 Press    =     -1392.7027 
Volume   =      6427.4873 
---------------- Step   110218 ----- CPU =      1.2688 (sec) ----------------
TotEng   =     -1989.6825 KinEng   =       386.0456 Temp     =       300.4879 
PotEng   =     -2375.7281 E_bond   =         0.0000 E_angle  =         0.0000 
E_dihed  =         0.0000 E_impro  =         0.0000 E_vdwl   =       401.3284 
E_coul   =     10477.5608 E_long   =    -13254.6173 Press    =     -1419.3211 
Volume   =      6427.4873 
---------------- Step   110220 ----- CPU =      1.2798 (sec) ----------------
TotEng   =     -1991.2203 KinEng   =       382.9716 Temp     =       298.0952 
PotEng   =     -2374.1919 E_bond   =         0.0000 E_angle  =         0.0000 
E_dihed  =         0.0000 E_impro  =         0.0000 E_vdwl   =       401.2944 
E_coul   =     10477.8539 E_long   =    -13253.3402 Press    =     -1430.0732 
Volume   =      6427.4873 
---------------- Step   110222 ----- CPU =      1.2906 (sec) ----------------
TotEng   =     -1992.7840 KinEng   =       386.5062 Temp     =       300.8464 
PotEng   =     -2379.2902 E_bond   =         0.0000 E_angle  =         0.0000 
E_dihed  =         0.0000 E_impro  =         0.0000 E_vdwl   =       403.2814 
E_coul   =     10470.7592 E_long   =    -13253.3308 Press    =     -1472.8733 
Volume   =      6427.4873 
---------------- Step   110224 ----- CPU =      1.3013 (sec) ----------------
TotEng   =     -1994.3399 KinEng   =       393.9683 Temp     =       306.6548 
PotEng   =     -2388.3082 E_bond   =         0.0000 E_angle  =         0.0000 
E_dihed  =         0.0000 E_impro  =         0.0000 E_vdwl   =       406.6536 
E_coul   =     10458.8681 E_long   =    -13253.8300 Press    =     -1530.9681 
Volume   =      6427.4873 
---------------- Step   110226 ----- CPU =      1.3125 (sec) ----------------
TotEng   =     -1995.8367 KinEng   =       398.8581 Temp     =       310.4609 
PotEng   =     -2394.6948 E_bond   =         0.0000 E_angle  =         0.0000 
E_dihed  =         0.0000 E_impro  =         0.0000 E_vdwl   =       410.1377 
E_coul   =     10449.5200 E_long   =    -13254.3525 Press    =     -1538.7225 
Volume   =      6427.4873 
---------------- Step   110228 ----- CPU =      1.3233 (sec) ----------------
TotEng   =     -1997.1748 KinEng   =       395.9510 Temp     =       308.1980 
PotEng   =     -2393.1258 E_bond   =         0.0000 E_angle  =         0.0000 
E_dihed  =         0.0000 E_impro  =         0.0000 E_vdwl   =       413.1301 
E_coul   =     10448.8212 E_long   =    -13255.0771 Press    =     -1425.2151 
Volume   =      6427.4873 
---------------- Step   110230 ----- CPU =      1.3341 (sec) ----------------
TotEng   =     -1998.3212 KinEng   =       385.8157 Temp     =       300.3090 
PotEng   =     -2384.1370 E_bond   =         0.0000 E_angle  =         0.0000 
E_dihed  =         0.0000 E_impro  =         0.0000 E_vdwl   =       415.8459 
E_coul   =     10455.9098 E_long   =    -13255.8927 Press    =     -1191.3509 
Volume   =      6427.4873 
---------------- Step   110232 ----- CPU =      1.3508 (sec) ----------------
TotEng   =     -1999.3729 KinEng   =       374.7361 Temp     =       291.6849 
PotEng   =     -2374.1090 E_bond   =         0.0000 E_angle  =         0.0000 
E_dihed  =         0.0000 E_impro  =         0.0000 E_vdwl   =       418.7144 
E_coul   =     10463.7181 E_long   =    -13256.5416 Press    =      -922.2945 
Volume   =      6427.4873 
---------------- Step   110234 ----- CPU =      1.3615 (sec) ----------------
TotEng   =     -2000.3161 KinEng   =       368.7492 Temp     =       287.0249 
PotEng   =     -2369.0653 E_bond   =         0.0000 E_angle  =         0.0000 
E_dihed  =         0.0000 E_impro  =         0.0000 E_vdwl   =       422.1098 
E_coul   =     10465.8970 E_long   =    -13257.0720 Press    =      -701.5266 
Volume   =      6427.4873 
---------------- Step   110236 ----- CPU =      1.3726 (sec) ----------------
TotEng   =     -2001.3008 KinEng   =       370.8607 Temp     =       288.6684 
PotEng   =     -2372.1616 E_bond   =         0.0000 E_angle  =         0.0000 
E_dihed  =         0.0000 E_impro  =         0.0000 E_vdwl   =       426.2740 
E_coul   =     10459.0715 E_long   =    -13257.5071 Press    =      -588.5929 
Volume   =      6427.4873 
---------------- Step   110238 ----- CPU =      1.3836 (sec) ----------------
TotEng   =     -2002.2363 KinEng   =       376.6446 Temp     =       293.1704 
PotEng   =     -2378.8809 E_bond   =         0.0000 E_angle  =         0.0000 
E_dihed  =         0.0000 E_impro  =         0.0000 E_vdwl   =       431.0010 
E_coul   =     10447.5292 E_long   =    -13257.4112 Press    =      -527.2822 
Volume   =      6427.4873 
---------------- Step   110240 ----- CPU =      1.3943 (sec) ----------------
TotEng   =     -2002.8993 KinEng   =       379.6200 Temp     =       295.4864 
PotEng   =     -2382.5193 E_bond   =         0.0000 E_angle  =         0.0000 
E_dihed  =         0.0000 E_impro  =         0.0000 E_vdwl   =       435.2225 
E_coul   =     10438.7676 E_long   =    -13256.5094 Press    =      -440.1910 
Volume   =      6427.4873 
---------------- Step   110242 ----- CPU =      1.4112 (sec) ----------------
TotEng   =     -2003.4804 KinEng   =       380.9148 Temp     =       296.4942 
PotEng   =     -2384.3952 E_bond   =         0.0000 E_angle  =         0.0000 
E_dihed  =         0.0000 E_impro  =         0.0000 E_vdwl   =       437.5563 
E_coul   =     10433.7592 E_long   =    -13255.7106 Press    =      -395.1292 
Volume   =      6427.4873 
---------------- Step   110244 ----- CPU =      1.4221 (sec) ----------------
TotEng   =     -2004.0495 KinEng   =       384.2508 Temp     =       299.0909 
PotEng   =     -2388.3002 E_bond   =         0.0000 E_angle  =         0.0000 
E_dihed  =         0.0000 E_impro  =         0.0000 E_vdwl   =       437.6322 
E_coul   =     10430.3075 E_long   =    -13256.2399 Press    =      -461.6002 
Volume   =      6427.4873 
---------------- Step   110246 ----- CPU =      1.4328 (sec) ----------------
TotEng   =     -2004.6943 KinEng   =       391.0162 Temp     =       304.3569 
PotEng   =     -2395.7105 E_bond   =         0.0000 E_angle  =         0.0000 
E_dihed  =         0.0000 E_impro  =         0.0000 E_vdwl   =       436.0992 
E_coul   =     10425.9642 E_long   =    -13257.7738 Press    =      -643.4436 
Volume   =      6427.4873 
---------------- Step   110248 ----- CPU =      1.4436 (sec) ----------------
TotEng   =     -2005.3662 KinEng   =       396.8874 Temp     =       308.9269 
PotEng   =     -2402.2536 E_bond   =         0.0000 E_angle  =         0.0000 
E_dihed  =         0.0000 E_impro  =         0.0000 E_vdwl   =       433.7185 
E_coul   =     10422.6657 E_long   =    -13258.6378 Press    =      -852.5533 
Volume   =      6427.4873 
---------------- Step   110250 ----- CPU =      1.4544 (sec) ----------------
TotEng   =     -2005.8982 KinEng   =       396.0034 Temp     =       308.2389 
PotEng   =     -2401.9017 E_bond   =         0.0000 E_angle  =         0.0000 
E_dihed  =         0.0000 E_impro  =         0.0000 E_vdwl   =       431.4338 
E_coul   =     10424.5130 E_long   =    -13257.8484 Press    =      -958.4054 
Volume   =      6427.4873 
---------------- Step   110252 ----- CPU =      1.4652 (sec) ----------------
TotEng   =     -2006.3557 KinEng   =       388.0755 Temp     =       302.0680 
PotEng   =     -2394.4312 E_bond   =         0.0000 E_angle  =         0.0000 
E_dihed  =         0.0000 E_impro  =         0.0000 E_vdwl   =       430.5557 
E_coul   =     10430.9154 E_long   =    -13255.9023 Press    =      -904.3944 
Volume   =      6427.4873 
---------------- Step   110254 ----- CPU =      1.4817 (sec) ----------------
TotEng   =     -2006.7110 KinEng   =       377.3101 Temp     =       293.6884 
PotEng   =     -2384.0211 E_bond   =         0.0000 E_angle  =         0.0000 
E_dihed  =         0.0000 E_impro  =         0.0000 E_vdwl   =       431.8387 
E_coul   =     10438.0914 E_long   =    -13253.9512 Press    =      -716.3663 
Volume   =      6427.4873 
---------------- Step   110256 ----- CPU =      1.4924 (sec) ----------------
TotEng   =     -2007.0511 KinEng   =       371.2801 Temp     =       288.9948 
PotEng   =     -2378.3312 E_bond   =         0.0000 E_angle  =         0.0000 
E_dihed  =         0.0000 E_impro  =         0.0000 E_vdwl   =       434.7571 
E_coul   =     10440.0678 E_long   =    -13253.1561 Press    =      -522.5433 
Volume   =      6427.4873 
---------------- Step   110258 ----- CPU =      1.5032 (sec) ----------------
TotEng   =     -2007.4754 KinEng   =       374.3411 Temp     =       291.3775 
PotEng   =     -2381.8165 E_bond   =         0.0000 E_angle  =         0.0000 
E_dihed  =         0.0000 E_impro  =         0.0000 E_vdwl   =       437.8881 
E_coul   =     10434.1592 E_long   =    -13253.8638 Press    =      -451.9042 
Volume   =      6427.4873 
---------------- Step   110260 ----- CPU =      1.5141 (sec) ----------------
TotEng   =     -2007.9419 KinEng   =       382.6583 Temp     =       297.8513 
PotEng   =     -2390.6001 E_bond   =         0.0000 E_angle  =         0.0000 
E_dihed  =         0.0000 E_impro  =         0.0000 E_vdwl   =       439.7998 
E_coul   =     10424.7480 E_long   =    -13255.1480 Press    =      -515.6535 
Volume   =      6427.4873 
---------------- Step   110262 ----- CPU =      1.5249 (sec) ----------------
TotEng   =     -2008.3134 KinEng   =       389.3324 Temp     =       303.0463 
PotEng   =     -2397.6458 E_bond   =         0.0000 E_angle  =         0.0000 
E_dihed  =         0.0000 E_impro  =         0.0000 E_vdwl   =       439.9116 
E_coul   =     10418.2274 E_long   =    -13255.7848 Press    =      -629.5352 
Volume   =      6427.4873 
---------------- Step   110264 ----- CPU =      1.5356 (sec) ----------------
TotEng   =     -2008.6170 KinEng   =       391.3411 Temp     =       304.6098 
PotEng   =     -2399.9581 E_bond   =         0.0000 E_angle  =         0.0000 
E_dihed  =         0.0000 E_impro  =         0.0000 E_vdwl   =       438.7311 
E_coul   =     10416.9106 E_long   =    -13255.5997 Press    =      -716.9677 
Volume   =      6427.4873 
---------------- Step   110266 ----- CPU =      1.5466 (sec) ----------------
TotEng   =     -2008.9121 KinEng   =       389.4560 Temp     =       303.1425 
PotEng   =     -2398.3681 E_bond   =         0.0000 E_angle  =         0.0000 
E_dihed  =         0.0000 E_impro  =         0.0000 E_vdwl   =       437.1584 
E_coul   =     10419.9428 E_long   =    -13255.4693 Press    =      -738.3819 
Volume   =      6427.4873 
---------------- Step   110268 ----- CPU =      1.5631 (sec) ----------------
TotEng   =     -2009.1746 KinEng   =       385.5327 Temp     =       300.0887 
PotEng   =     -2394.7073 E_bond   =         0.0000 E_angle  =         0.0000 
E_dihed  =         0.0000 E_impro  =         0.0000 E_vdwl   =       435.7230 
E_coul   =     10425.3409 E_long   =    -13255.7712 Press    =      -707.4887 
Volume   =      6427.4873 
---------------- Step   110270 ----- CPU =      1.5740 (sec) ----------------
TotEng   =     -2009.4268 KinEng   =       382.2915 Temp     =       297.5658 
PotEng   =     -2391.7183 E_bond   =         0.0000 E_angle  =         0.0000 
E_dihed  =         0.0000 E_impro  =         0.0000 E_vdwl   =       434.6140 
E_coul   =     10429.6418 E_long   =    -13255.9741 Press    =      -678.8185 
Volume   =      6427.4873 
---------------- Step   110272 ----- CPU =      1.5847 (sec) ----------------
TotEng   =     -2009.6371 KinEng   =       382.9679 Temp     =       298.0924 
PotEng   =     -2392.6050 E_bond   =         0.0000 E_angle  =         0.0000 
E_dihed  =         0.0000 E_impro  =         0.0000 E_vdwl   =       434.0986 
E_coul   =     10429.3381 E_long   =    -13256.0418 Press    =      -694.6104 
Volume   =      6427.4873 
---------------- Step   110274 ----- CPU =      1.5959 (sec) ----------------
TotEng   =     -2009.9752 KinEng   =       390.5707 Temp     =       304.0102 
PotEng   =     -2400.5460 E_bond   =         0.0000 E_angle  =         0.0000 
E_dihed  =         0.0000 E_impro  =         0.0000 E_vdwl   =       434.4855 
E_coul   =     10421.7789 E_long   =    -13256.8103 Press    =      -795.0667 
Volume   =      6427.4873 
---------------- Step   110276 ----- CPU =      1.6067 (sec) ----------------
TotEng   =     -2010.4440 KinEng   =       401.0201 Temp     =       312.1437 
PotEng   =     -2411.4641 E_bond   =         0.0000 E_angle  =         0.0000 
E_dihed  =         0.0000 E_impro  =         0.0000 E_vdwl   =       435.7477 
E_coul   =     10411.1222 E_long   =    -13258.3340 Press    =      -926.9232 
Volume   =      6427.4873 
---------------- Step   110278 ----- CPU =      1.6175 (sec) ----------------
TotEng   =     -2010.8302 KinEng   =       404.7152 Temp     =       315.0198 
PotEng   =     -2415.5454 E_bond   =         0.0000 E_angle  =         0.0000 
E_dihed  =         0.0000 E_impro  =         0.0000 E_vdwl   =       437.3411 
E_coul   =     10406.3053 E_long   =    -13259.1918 Press    =      -962.4100 
Volume   =      6427.4873 
---------------- Step   110280 ----- CPU =      1.6343 (sec) ----------------
TotEng   =     -2011.0791 KinEng   =       398.5490 Temp     =       310.2203 
PotEng   =     -2409.6282 E_bond   =         0.0000 E_angle  =         0.0000 
E_dihed  =         0.0000 E_impro  =         0.0000 E_vdwl   =       438.4686 
E_coul   =     10410.1387 E_long   =    -13258.2354 Press    =      -872.0747 
Volume   =      6427.4873 
---------------- Step   110282 ----- CPU =      1.6451 (sec) ----------------
TotEng   =     -2011.3476 KinEng   =       389.4972 Temp     =       303.1745 
PotEng   =     -2400.8447 E_bond   =         0.0000 E_angle  =         0.0000 
E_dihed  =         0.0000 E_impro  =         0.0000 E_vdwl   =       438.8900 
E_coul   =     10416.4434 E_long   =    -13256.1782 Press    =      -758.7331 
Volume   =      6427.4873 
---------------- Step   110284 ----- CPU =      1.6560 (sec) ----------------
TotEng   =     -2011.6953 KinEng   =       385.5925 Temp     =       300.1352 
PotEng   =     -2397.2878 E_bond   =         0.0000 E_angle  =         0.0000 
E_dihed  =         0.0000 E_impro  =         0.0000 E_vdwl   =       439.3664 
E_coul   =     10418.0993 E_long   =    -13254.7536 Press    =      -708.1308 
Volume   =      6427.4873 
---------------- Step   110286 ----- CPU =      1.6670 (sec) ----------------
TotEng   =     -2012.1435 KinEng   =       390.5596 Temp     =       304.0015 
PotEng   =     -2402.7031 E_bond   =         0.0000 E_angle  =         0.0000 
E_dihed  =         0.0000 E_impro  =         0.0000 E_vdwl   =       440.6615 
E_coul   =     10411.6185 E_long   =    -13254.9831 Press    =      -745.3564 
Volume   =      6427.4873 
---------------- Step   110288 ----- CPU =      1.6777 (sec) ----------------
TotEng   =     -2012.7480 KinEng   =       401.8469 Temp     =       312.7872 
PotEng   =     -2414.5948 E_bond   =         0.0000 E_angle  =         0.0000 
E_dihed  =         0.0000 E_impro  =         0.0000 E_vdwl   =       442.4656 
E_coul   =     10399.4785 E_long   =    -13256.5389 Press    =      -840.4891 
Volume   =      6427.4873 
---------------- Step   110290 ----- CPU =      1.6887 (sec) ----------------
TotEng   =     -2013.3796 KinEng   =       409.5390 Temp     =       318.7746 
PotEng   =     -2422.9186 E_bond   =         0.0000 E_angle  =         0.0000 
E_dihed  =         0.0000 E_impro  =         0.0000 E_vdwl   =       443.7221 
E_coul   =     10391.3169 E_long   =    -13257.9576 Press    =      -876.0606 
Volume   =      6427.4873 
---------------- Step   110292 ----- CPU =      1.6998 (sec) ----------------
TotEng   =     -2013.7806 KinEng   =       406.7225 Temp     =       316.5823 
PotEng   =     -2420.5031 E_bond   =         0.0000 E_angle  =         0.0000 
E_dihed  =         0.0000 E_impro  =         0.0000 E_vdwl   =       443.8005 
E_coul   =     10393.7306 E_long   =    -13258.0342 Press    =      -766.0153 
Volume   =      6427.4873 
---------------- Step   110294 ----- CPU =      1.7165 (sec) ----------------
TotEng   =     -2014.1970 KinEng   =       401.1292 Temp     =       312.2286 
PotEng   =     -2415.3262 E_bond   =         0.0000 E_angle  =         0.0000 
E_dihed  =         0.0000 E_impro  =         0.0000 E_vdwl   =       443.3729 
E_coul   =     10398.7155 E_long   =    -13257.4146 Press    =      -623.3278 
Volume   =      6427.4873 
---------------- Step   110296 ----- CPU =      1.7277 (sec) ----------------
TotEng   =     -2014.9278 KinEng   =       401.9459 Temp     =       312.8643 
PotEng   =     -2416.8737 E_bond   =         0.0000 E_angle  =         0.0000 
E_dihed  =         0.0000 E_impro  =         0.0000 E_vdwl   =       444.3047 
E_coul   =     10396.2851 E_long   =    -13257.4635 Press    =      -548.9124 
Volume   =      6427.4873 
---------------- Step   110298 ----- CPU =      1.7386 (sec) ----------------
TotEng   =     -2015.7380 KinEng   =       406.1781 Temp     =       316.1586 
PotEng   =     -2421.9161 E_bond   =         0.0000 E_angle  =         0.0000 
E_dihed  =         0.0000 E_impro  =         0.0000 E_vdwl   =       448.5182 
E_coul   =     10387.7777 E_long   =    -13258.2120 Press    =      -440.9761 
Volume   =      6427.4873 
---------------- Step   110300 ----- CPU =      1.7496 (sec) ----------------
TotEng   =     -2016.4996 KinEng   =       408.3741 Temp     =       317.8679 
PotEng   =     -2424.8737 E_bond   =         0.0000 E_angle  =         0.0000 
E_dihed  =         0.0000 E_impro  =         0.0000 E_vdwl   =       456.5318 
E_coul   =     10377.4307 E_long   =    -13258.8363 Press    =      -208.7434 
Volume   =      6427.4873 
---------------- Step   110302 ----- CPU =      1.7608 (sec) ----------------
TotEng   =     -2017.3281 KinEng   =       409.1498 Temp     =       318.4717 
PotEng   =     -2426.4779 E_bond   =         0.0000 E_angle  =         0.0000 
E_dihed  =         0.0000 E_impro  =         0.0000 E_vdwl   =       466.9245 
E_coul   =     10365.5333 E_long   =    -13258.9358 Press    =        87.5129 
Volume   =      6427.4873 
---------------- Step   110304 ----- CPU =      1.7716 (sec) ----------------
TotEng   =     -2018.3499 KinEng   =       409.7745 Temp     =       318.9579 
PotEng   =     -2428.1243 E_bond   =         0.0000 E_angle  =         0.0000 
E_dihed  =         0.0000 E_impro  =         0.0000 E_vdwl   =       477.3193 
E_coul   =     10353.1560 E_long   =    -13258.5996 Press    =       357.4119 
Volume   =      6427.4873 
---------------- Step   110306 ----- CPU =      1.7824 (sec) ----------------
TotEng   =     -2019.3904 KinEng   =       406.9907 Temp     =       316.7911 
PotEng   =     -2426.3811 E_bond   =         0.0000 E_angle  =         0.0000 
E_dihed  =         0.0000 E_impro  =         0.0000 E_vdwl   =       486.0263 
E_coul   =     10345.5137 E_long   =    -13257.9212 Press    =       614.6248 
Volume   =      6427.4873 
---------------- Step   110308 ----- CPU =      1.7991 (sec) ----------------
TotEng   =     -2020.3235 KinEng   =       399.6202 Temp     =       311.0541 
PotEng   =     -2419.9438 E_bond   =         0.0000 E_angle  =         0.0000 
E_dihed  =         0.0000 E_impro  =         0.0000 E_vdwl   =       492.5026 
E_coul   =     10344.4772 E_long   =    -13256.9236 Press    =       865.7332 
Volume   =      6427.4873 
---------------- Step   110310 ----- CPU =      1.8100 (sec) ----------------
TotEng   =     -2021.3231 KinEng   =       393.1328 Temp     =       306.0044 
PotEng   =     -2414.4558 E_bond   =         0.0000 E_angle  =         0.0000 
E_dihed  =         0.0000 E_impro  =         0.0000 E_vdwl   =       496.5469 
E_coul   =     10345.0543 E_long   =    -13256.0570 Press    =      1023.7094 
Volume   =      6427.4873 
---------------- Step   110312 ----- CPU =      1.8208 (sec) ----------------
TotEng   =     -2022.4467 KinEng   =       391.3909 Temp     =       304.6486 
PotEng   =     -2413.8377 E_bond   =         0.0000 E_angle  =         0.0000 
E_dihed  =         0.0000 E_impro  =         0.0000 E_vdwl   =       497.9647 
E_coul   =     10344.1271 E_long   =    -13255.9295 Press    =      1040.1746 
Volume   =      6427.4873 
---------------- Step   110314 ----- CPU =      1.8318 (sec) ----------------
TotEng   =     -2023.5635 KinEng   =       392.2676 Temp     =       305.3310 
PotEng   =     -2415.8311 E_bond   =         0.0000 E_angle  =         0.0000 
E_dihed  =         0.0000 E_impro  =         0.0000 E_vdwl   =       496.7351 
E_coul   =     10344.0263 E_long   =    -13256.5925 Press    =       960.6220 
Volume   =      6427.4873 
---------------- Step   110316 ----- CPU =      1.8427 (sec) ----------------
TotEng   =     -2024.6369 KinEng   =       393.4272 Temp     =       306.2336 
PotEng   =     -2418.0642 E_bond   =         0.0000 E_angle  =         0.0000 
E_dihed  =         0.0000 E_impro  =         0.0000 E_vdwl   =       493.1598 
E_coul   =     10346.4290 E_long   =    -13257.6529 Press    =       832.2002 
Volume   =      6427.4873 
---------------- Step   110318 ----- CPU =      1.8534 (sec) ----------------
TotEng   =     -2025.7184 KinEng   =       396.6384 Temp     =       308.7331 
PotEng   =     -2422.3568 E_bond   =         0.0000 E_angle  =         0.0000 
E_dihed  =         0.0000 E_impro  =         0.0000 E_vdwl   =       487.8742 
E_coul   =     10348.3709 E_long   =    -13258.6020 Press    =       641.2852 
Volume   =      6427.4873 
---------------- Step   110320 ----- CPU =      1.8643 (sec) ----------------
TotEng   =     -2026.9762 KinEng   =       402.4232 Temp     =       313.2358 
PotEng   =     -2429.3994 E_bond   =         0.0000 E_angle  =         0.0000 
E_dihed  =         0.0000 E_impro  =         0.0000 E_vdwl   =       481.7222 
E_coul   =     10347.6489 E_long   =    -13258.7706 Press    =       388.5393 
Volume   =      6427.4873 
---------------- Step   110322 ----- CPU =      1.8809 (sec) ----------------
TotEng   =     -2028.2558 KinEng   =       404.8504 Temp     =       315.1251 
PotEng   =     -2433.1063 E_bond   =         0.0000 E_angle  =         0.0000 
E_dihed  =         0.0000 E_impro  =         0.0000 E_vdwl   =       475.6032 
E_coul   =     10349.2291 E_long   =    -13257.9386 Press    =       203.3915 
Volume   =      6427.4873 
---------------- Step   110324 ----- CPU =      1.8919 (sec) ----------------
TotEng   =     -2029.3623 KinEng   =       401.3489 Temp     =       312.3996 
PotEng   =     -2430.7112 E_bond   =         0.0000 E_angle  =         0.0000 
E_dihed  =         0.0000 E_impro  =         0.0000 E_vdwl   =       470.3206 
E_coul   =     10356.1491 E_long   =    -13257.1809 Press    =       157.8441 
Volume   =      6427.4873 
---------------- Step   110326 ----- CPU =      1.9027 (sec) ----------------
TotEng   =     -2030.5661 KinEng   =       398.7824 Temp     =       310.4019 
PotEng   =     -2429.3485 E_bond   =         0.0000 E_angle  =         0.0000 
E_dihed  =         0.0000 E_impro  =         0.0000 E_vdwl   =       466.7247 
E_coul   =     10361.5141 E_long   =    -13257.5873 Press    =       133.4562 
Volume   =      6427.4873 
---------------- Step   110328 ----- CPU =      1.9138 (sec) ----------------
TotEng   =     -2031.9843 KinEng   =       399.7877 Temp     =       311.1844 
PotEng   =     -2431.7720 E_bond   =         0.0000 E_angle  =         0.0000 
E_dihed  =         0.0000 E_impro  =         0.0000 E_vdwl   =       465.6676 
E_coul   =     10361.0260 E_long   =    -13258.4656 Press    =        84.5732 
Volume   =      6427.4873 
---------------- Step   110330 ----- CPU =      1.9245 (sec) ----------------
TotEng   =     -2033.2834 KinEng   =       398.3679 Temp     =       310.0793 
PotEng   =     -2431.6513 E_bond   =         0.0000 E_angle  =         0.0000 
E_dihed  =         0.0000 E_impro  =         0.0000 E_vdwl   =       467.2309 
E_coul   =     10359.3442 E_long   =    -13258.2264 Press    =       121.5145 
Volume   =      6427.4873 
---------------- Step   110332 ----- CPU =      1.9353 (sec) ----------------
TotEng   =     -2034.5206 KinEng   =       393.3178 Temp     =       306.1485 
PotEng   =     -2427.8385 E_bond   =         0.0000 E_angle  =         0.0000 
E_dihed  =         0.0000 E_impro  =         0.0000 E_vdwl   =       470.5044 
E_coul   =     10358.4647 E_long   =    -13256.8076 Press    =       244.5039 
Volume   =      6427.4873 
---------------- Step   110334 ----- CPU =      1.9464 (sec) ----------------
TotEng   =     -2035.8052 KinEng   =       388.1637 Temp     =       302.1366 
PotEng   =     -2423.9690 E_bond   =         0.0000 E_angle  =         0.0000 
E_dihed  =         0.0000 E_impro  =         0.0000 E_vdwl   =       474.2760 
E_coul   =     10357.4908 E_long   =    -13255.7357 Press    =       367.7487 
Volume   =      6427.4873 
---------------- Step   110336 ----- CPU =      1.9573 (sec) ----------------
TotEng   =     -2037.0884 KinEng   =       383.7948 Temp     =       298.7360 
PotEng   =     -2420.8832 E_bond   =         0.0000 E_angle  =         0.0000 
E_dihed  =         0.0000 E_impro  =         0.0000 E_vdwl   =       477.6218 
E_coul   =     10357.1241 E_long   =    -13255.6291 Press    =       459.1105 
Volume   =      6427.4873 
---------------- Step   110338 ----- CPU =      1.9681 (sec) ----------------
TotEng   =     -2038.2808 KinEng   =       378.5042 Temp     =       294.6179 
PotEng   =     -2416.7851 E_bond   =         0.0000 E_angle  =         0.0000 
E_dihed  =         0.0000 E_impro  =         0.0000 E_vdwl   =       480.2282 
E_coul   =     10358.5357 E_long   =    -13255.5490 Press    =       541.7334 
Volume   =      6427.4873 
---------------- Step   110340 ----- CPU =      1.9847 (sec) ----------------
TotEng   =     -2039.3252 KinEng   =       373.1742 Temp     =       290.4692 
PotEng   =     -2412.4994 E_bond   =         0.0000 E_angle  =         0.0000 
E_dihed  =         0.0000 E_impro  =         0.0000 E_vdwl   =       482.4545 
E_coul   =     10360.2539 E_long   =    -13255.2078 Press    =       629.9543 
Volume   =      6427.4873 
---------------- Step   110342 ----- CPU =      1.9954 (sec) ----------------
TotEng   =     -2040.3376 KinEng   =       372.1265 Temp     =       289.6537 
PotEng   =     -2412.4641 E_bond   =         0.0000 E_angle  =         0.0000 
E_dihed  =         0.0000 E_impro  =         0.0000 E_vdwl   =       485.0154 
E_coul   =     10357.9654 E_long   =    -13255.4449 Press    =       695.0442 
Volume   =      6427.4873 
---------------- Step   110344 ----- CPU =      2.0065 (sec) ----------------
TotEng   =     -2041.4522 KinEng   =       376.3133 Temp     =       292.9126 
PotEng   =     -2417.7655 E_bond   =         0.0000 E_angle  =         0.0000 
E_dihed  =         0.0000 E_impro  =         0.0000 E_vdwl   =       488.2900 
E_coul   =     10350.3916 E_long   =    -13256.4471 Press    =       722.4576 
Volume   =      6427.4873 
---------------- Step   110346 ----- CPU =      2.0175 (sec) ----------------
TotEng   =     -2042.3979 KinEng   =       379.7317 Temp     =       295.5733 
PotEng   =     -2422.1295 E_bond   =         0.0000 E_angle  =         0.0000 
E_dihed  =         0.0000 E_impro  =         0.0000 E_vdwl   =       491.6523 
E_coul   =     10343.4781 E_long   =    -13257.2599 Press    =       770.2379 
Volume   =      6427.4873 
---------------- Step   110348 ----- CPU =      2.0281 (sec) ----------------
TotEng   =     -2043.1858 KinEng   =       380.7275 Temp     =       296.3485 
PotEng   =     -2423.9134 E_bond   =         0.0000 E_angle  =         0.0000 
E_dihed  =         0.0000 E_impro  =         0.0000 E_vdwl   =       493.7893 
E_coul   =     10339.5819 E_long   =    -13257.2846 Press    =       808.5152 
Volume   =      6427.4873 
---------------- Step   110350 ----- CPU =      2.0394 (sec) ----------------
TotEng   =     -2044.0429 KinEng   =       384.1175 Temp     =       298.9872 
PotEng   =     -2428.1604 E_bond   =         0.0000 E_angle  =         0.0000 
E_dihed  =         0.0000 E_impro  =         0.0000 E_vdwl   =       493.9684 
E_coul   =     10334.9383 E_long   =    -13257.0671 Press    =       746.7614 
Volume   =      6427.4873 
---------------- Step   110352 ----- CPU =      2.0561 (sec) ----------------
TotEng   =     -2044.9651 KinEng   =       390.3897 Temp     =       303.8693 
PotEng   =     -2435.3548 E_bond   =         0.0000 E_angle  =         0.0000 
E_dihed  =         0.0000 E_impro  =         0.0000 E_vdwl   =       492.5681 
E_coul   =     10329.3460 E_long   =    -13257.2688 Press    =       600.9526 
Volume   =      6427.4873 
---------------- Step   110354 ----- CPU =      2.0670 (sec) ----------------
TotEng   =     -2045.9244 KinEng   =       393.5235 Temp     =       306.3085 
PotEng   =     -2439.4478 E_bond   =         0.0000 E_angle  =         0.0000 
E_dihed  =         0.0000 E_impro  =         0.0000 E_vdwl   =       490.5527 
E_coul   =     10327.5985 E_long   =    -13257.5990 Press    =       464.4530 
Volume   =      6427.4873 
---------------- Step   110356 ----- CPU =      2.0782 (sec) ----------------
TotEng   =     -2046.6256 KinEng   =       387.0289 Temp     =       301.2533 
PotEng   =     -2433.6545 E_bond   =         0.0000 E_angle  =         0.0000 
E_dihed  =         0.0000 E_impro  =         0.0000 E_vdwl   =       488.9309 
E_coul   =     10334.8587 E_long   =    -13257.4441 Press    =       447.4924 
Volume   =      6427.4873 
---------------- Step   110358 ----- CPU =      2.0892 (sec) ----------------
TotEng   =     -2047.2028 KinEng   =       376.5905 Temp     =       293.1283 
PotEng   =     -2423.7933 E_bond   =         0.0000 E_angle  =         0.0000 
E_dihed  =         0.0000 E_impro  =         0.0000 E_vdwl   =       488.2148 
E_coul   =     10344.8940 E_long   =    -13256.9021 Press    =       492.0921 
Volume   =      6427.4873 
---------------- Step   110360 ----- CPU =      2.0999 (sec) ----------------
TotEng   =     -2047.9366 KinEng   =       371.6701 Temp     =       289.2984 
PotEng   =     -2419.6067 E_bond   =         0.0000 E_angle  =         0.0000 
E_dihed  =         0.0000 E_impro  =         0.0000 E_vdwl   =       487.9039 
E_coul   =     10348.8765 E_long   =    -13256.3871 Press    =       478.4655 
Volume   =      6427.4873 
---------------- Step   110362 ----- CPU =      2.1108 (sec) ----------------
TotEng   =     -2048.6355 KinEng   =       371.7349 Temp     =       289.3489 
PotEng   =     -2420.3704 E_bond   =         0.0000 E_angle  =         0.0000 
E_dihed  =         0.0000 E_impro  =         0.0000 E_vdwl   =       487.0429 
E_coul   =     10348.6797 E_long   =    -13256.0930 Press    =       420.9138 
Volume   =      6427.4873 
---------------- Step   110364 ----- CPU =      2.1217 (sec) ----------------
TotEng   =     -2049.2510 KinEng   =       372.8014 Temp     =       290.1790 
PotEng   =     -2422.0525 E_bond   =         0.0000 E_angle  =         0.0000 
E_dihed  =         0.0000 E_impro  =         0.0000 E_vdwl   =       485.3530 
E_coul   =     10348.6204 E_long   =    -13256.0259 Press    =       361.7846 
Volume   =      6427.4873 
---------------- Step   110366 ----- CPU =      2.1325 (sec) ----------------
TotEng   =     -2049.7667 KinEng   =       372.6863 Temp     =       290.0894 
PotEng   =     -2422.4529 E_bond   =         0.0000 E_angle  =         0.0000 
E_dihed  =         0.0000 E_impro  =         0.0000 E_vdwl   =       483.2624 
E_coul   =     10350.4269 E_long   =    -13256.1423 Press    =       331.7089 
Volume   =      6427.4873 
---------------- Step   110368 ----- CPU =      2.1491 (sec) ----------------
TotEng   =     -2050.2361 KinEng   =       371.4908 Temp     =       289.1589 
PotEng   =     -2421.7269 E_bond   =         0.0000 E_angle  =         0.0000 
E_dihed  =         0.0000 E_impro  =         0.0000 E_vdwl   =       481.2831 
E_coul   =     10353.3601 E_long   =    -13256.3702 Press    =       328.7870 
Volume   =      6427.4873 
---------------- Step   110370 ----- CPU =      2.1600 (sec) ----------------
TotEng   =     -2050.6021 KinEng   =       369.1819 Temp     =       287.3617 
PotEng   =     -2419.7840 E_bond   =         0.0000 E_angle  =         0.0000 
E_dihed  =         0.0000 E_impro  =         0.0000 E_vdwl   =       479.8866 
E_coul   =     10356.7733 E_long   =    -13256.4439 Press    =       348.3581 
Volume   =      6427.4873 
---------------- Step   110372 ----- CPU =      2.1707 (sec) ----------------
TotEng   =     -2050.8492 KinEng   =       367.3674 Temp     =       285.9493 
PotEng   =     -2418.2167 E_bond   =         0.0000 E_angle  =         0.0000 
E_dihed  =         0.0000 E_impro  =         0.0000 E_vdwl   =       479.3281 
[...]
Volume   =      6427.4873 
---------------- Step   119914 ----- CPU =     58.1674 (sec) ----------------
TotEng   =     -2038.9593 KinEng   =       376.8755 Temp     =       293.3502 
PotEng   =     -2415.8349 E_bond   =         0.0000 E_angle  =         0.0000 
E_dihed  =         0.0000 E_impro  =         0.0000 E_vdwl   =       495.4415 
E_coul   =     10346.6979 E_long   =    -13257.9743 Press    =      1084.1699 
Volume   =      6427.4873 
---------------- Step   119916 ----- CPU =     58.1786 (sec) ----------------
TotEng   =     -2039.2901 KinEng   =       380.0576 Temp     =       295.8270 
PotEng   =     -2419.3476 E_bond   =         0.0000 E_angle  =         0.0000 
E_dihed  =         0.0000 E_impro  =         0.0000 E_vdwl   =       498.8257 
E_coul   =     10339.3711 E_long   =    -13257.5444 Press    =      1149.4431 
Volume   =      6427.4873 
---------------- Step   119918 ----- CPU =     58.1896 (sec) ----------------
TotEng   =     -2039.4658 KinEng   =       379.0020 Temp     =       295.0054 
PotEng   =     -2418.4678 E_bond   =         0.0000 E_angle  =         0.0000 
E_dihed  =         0.0000 E_impro  =         0.0000 E_vdwl   =       502.4290 
E_coul   =     10336.2693 E_long   =    -13257.1660 Press    =      1268.0545 
Volume   =      6427.4873 
---------------- Step   119920 ----- CPU =     58.2064 (sec) ----------------
TotEng   =     -2039.6557 KinEng   =       378.2016 Temp     =       294.3824 
PotEng   =     -2417.8573 E_bond   =         0.0000 E_angle  =         0.0000 
E_dihed  =         0.0000 E_impro  =         0.0000 E_vdwl   =       506.0332 
E_coul   =     10333.4906 E_long   =    -13257.3811 Press    =      1357.8841 
Volume   =      6427.4873 
---------------- Step   119922 ----- CPU =     58.2175 (sec) ----------------
TotEng   =     -2039.9979 KinEng   =       380.9897 Temp     =       296.5525 
PotEng   =     -2420.9876 E_bond   =         0.0000 E_angle  =         0.0000 
E_dihed  =         0.0000 E_impro  =         0.0000 E_vdwl   =       509.2012 
E_coul   =     10327.9612 E_long   =    -13258.1499 Press    =      1363.2511 
Volume   =      6427.4873 
---------------- Step   119924 ----- CPU =     58.2284 (sec) ----------------
TotEng   =     -2040.3188 KinEng   =       382.6935 Temp     =       297.8787 
PotEng   =     -2423.0122 E_bond   =         0.0000 E_angle  =         0.0000 
E_dihed  =         0.0000 E_impro  =         0.0000 E_vdwl   =       511.1118 
E_coul   =     10324.4061 E_long   =    -13258.5301 Press    =      1352.6113 
Volume   =      6427.4873 
---------------- Step   119926 ----- CPU =     58.2396 (sec) ----------------
TotEng   =     -2040.4548 KinEng   =       378.7419 Temp     =       294.8030 
PotEng   =     -2419.1967 E_bond   =         0.0000 E_angle  =         0.0000 
E_dihed  =         0.0000 E_impro  =         0.0000 E_vdwl   =       510.9857 
E_coul   =     10327.8080 E_long   =    -13257.9904 Press    =      1389.4388 
Volume   =      6427.4873 
---------------- Step   119928 ----- CPU =     58.2509 (sec) ----------------
TotEng   =     -2040.5464 KinEng   =       373.2421 Temp     =       290.5220 
PotEng   =     -2413.7885 E_bond   =         0.0000 E_angle  =         0.0000 
E_dihed  =         0.0000 E_impro  =         0.0000 E_vdwl   =       508.4419 
E_coul   =     10334.8932 E_long   =    -13257.1236 Press    =      1398.8893 
Volume   =      6427.4873 
---------------- Step   119930 ----- CPU =     58.2617 (sec) ----------------
TotEng   =     -2040.7075 KinEng   =       372.6822 Temp     =       290.0862 
PotEng   =     -2413.3898 E_bond   =         0.0000 E_angle  =         0.0000 
E_dihed  =         0.0000 E_impro  =         0.0000 E_vdwl   =       503.4462 
E_coul   =     10339.9230 E_long   =    -13256.7590 Press    =      1276.7461 
Volume   =      6427.4873 
---------------- Step   119932 ----- CPU =     58.2789 (sec) ----------------
TotEng   =     -2040.9684 KinEng   =       377.7657 Temp     =       294.0431 
PotEng   =     -2418.7341 E_bond   =         0.0000 E_angle  =         0.0000 
E_dihed  =         0.0000 E_impro  =         0.0000 E_vdwl   =       496.6681 
E_coul   =     10341.6936 E_long   =    -13257.0958 Press    =      1027.4272 
Volume   =      6427.4873 
---------------- Step   119934 ----- CPU =     58.2898 (sec) ----------------
TotEng   =     -2041.1700 KinEng   =       383.1086 Temp     =       298.2019 
PotEng   =     -2424.2786 E_bond   =         0.0000 E_angle  =         0.0000 
E_dihed  =         0.0000 E_impro  =         0.0000 E_vdwl   =       489.8421 
E_coul   =     10343.4584 E_long   =    -13257.5791 Press    =       772.9665 
Volume   =      6427.4873 
---------------- Step   119936 ----- CPU =     58.3009 (sec) ----------------
TotEng   =     -2041.2739 KinEng   =       384.8278 Temp     =       299.5400 
PotEng   =     -2426.1017 E_bond   =         0.0000 E_angle  =         0.0000 
E_dihed  =         0.0000 E_impro  =         0.0000 E_vdwl   =       485.0398 
E_coul   =     10346.4092 E_long   =    -13257.5507 Press    =       615.7755 
Volume   =      6427.4873 
---------------- Step   119938 ----- CPU =     58.3120 (sec) ----------------
TotEng   =     -2041.3485 KinEng   =       384.7799 Temp     =       299.5027 
PotEng   =     -2426.1284 E_bond   =         0.0000 E_angle  =         0.0000 
E_dihed  =         0.0000 E_impro  =         0.0000 E_vdwl   =       483.4784 
E_coul   =     10347.3482 E_long   =    -13256.9549 Press    =       568.1495 
Volume   =      6427.4873 
---------------- Step   119940 ----- CPU =     58.3229 (sec) ----------------
TotEng   =     -2041.4872 KinEng   =       386.3728 Temp     =       300.7426 
PotEng   =     -2427.8599 E_bond   =         0.0000 E_angle  =         0.0000 
E_dihed  =         0.0000 E_impro  =         0.0000 E_vdwl   =       485.1203 
E_coul   =     10343.3902 E_long   =    -13256.3705 Press    =       591.6266 
Volume   =      6427.4873 
---------------- Step   119942 ----- CPU =     58.3339 (sec) ----------------
TotEng   =     -2041.6558 KinEng   =       390.3316 Temp     =       303.8241 
PotEng   =     -2431.9874 E_bond   =         0.0000 E_angle  =         0.0000 
E_dihed  =         0.0000 E_impro  =         0.0000 E_vdwl   =       488.9461 
E_coul   =     10335.4450 E_long   =    -13256.3786 Press    =       654.6202 
Volume   =      6427.4873 
---------------- Step   119944 ----- CPU =     58.3449 (sec) ----------------
TotEng   =     -2041.8918 KinEng   =       395.9240 Temp     =       308.1770 
PotEng   =     -2437.8158 E_bond   =         0.0000 E_angle  =         0.0000 
E_dihed  =         0.0000 E_impro  =         0.0000 E_vdwl   =       493.4248 
E_coul   =     10325.9029 E_long   =    -13257.1435 Press    =       719.0218 
Volume   =      6427.4873 
---------------- Step   119946 ----- CPU =     58.3617 (sec) ----------------
TotEng   =     -2042.2490 KinEng   =       399.7314 Temp     =       311.1406 
PotEng   =     -2441.9804 E_bond   =         0.0000 E_angle  =         0.0000 
E_dihed  =         0.0000 E_impro  =         0.0000 E_vdwl   =       497.2232 
E_coul   =     10318.9990 E_long   =    -13258.2027 Press    =       771.3441 
Volume   =      6427.4873 
---------------- Step   119948 ----- CPU =     58.3724 (sec) ----------------
TotEng   =     -2042.5763 KinEng   =       395.7101 Temp     =       308.0105 
PotEng   =     -2438.2865 E_bond   =         0.0000 E_angle  =         0.0000 
E_dihed  =         0.0000 E_impro  =         0.0000 E_vdwl   =       499.5499 
E_coul   =     10320.7381 E_long   =    -13258.5744 Press    =       862.4690 
Volume   =      6427.4873 
---------------- Step   119950 ----- CPU =     58.3833 (sec) ----------------
TotEng   =     -2042.7725 KinEng   =       382.6699 Temp     =       297.8603 
PotEng   =     -2425.4424 E_bond   =         0.0000 E_angle  =         0.0000 
E_dihed  =         0.0000 E_impro  =         0.0000 E_vdwl   =       499.7030 
E_coul   =     10332.3733 E_long   =    -13257.5187 Press    =      1004.1642 
Volume   =      6427.4873 
---------------- Step   119952 ----- CPU =     58.3945 (sec) ----------------
TotEng   =     -2042.8536 KinEng   =       369.5464 Temp     =       287.6453 
PotEng   =     -2412.3999 E_bond   =         0.0000 E_angle  =         0.0000 
E_dihed  =         0.0000 E_impro  =         0.0000 E_vdwl   =       497.2412 
E_coul   =     10345.9497 E_long   =    -13255.5908 Press    =      1080.0194 
Volume   =      6427.4873 
---------------- Step   119954 ----- CPU =     58.4053 (sec) ----------------
TotEng   =     -2043.1908 KinEng   =       367.1145 Temp     =       285.7525 
PotEng   =     -2410.3053 E_bond   =         0.0000 E_angle  =         0.0000 
E_dihed  =         0.0000 E_impro  =         0.0000 E_vdwl   =       492.6557 
E_coul   =     10351.5179 E_long   =    -13254.4789 Press    =       957.8811 
Volume   =      6427.4873 
---------------- Step   119956 ----- CPU =     58.4162 (sec) ----------------
TotEng   =     -2043.5431 KinEng   =       372.1038 Temp     =       289.6360 
PotEng   =     -2415.6468 E_bond   =         0.0000 E_angle  =         0.0000 
E_dihed  =         0.0000 E_impro  =         0.0000 E_vdwl   =       487.0361 
E_coul   =     10352.3007 E_long   =    -13254.9836 Press    =       734.6306 
Volume   =      6427.4873 
---------------- Step   119958 ----- CPU =     58.4330 (sec) ----------------
TotEng   =     -2043.7125 KinEng   =       377.2030 Temp     =       293.6051 
PotEng   =     -2420.9155 E_bond   =         0.0000 E_angle  =         0.0000 
E_dihed  =         0.0000 E_impro  =         0.0000 E_vdwl   =       481.2330 
E_coul   =     10354.1028 E_long   =    -13256.2513 Press    =       530.2809 
Volume   =      6427.4873 
---------------- Step   119960 ----- CPU =     58.4440 (sec) ----------------
TotEng   =     -2043.8610 KinEng   =       382.9342 Temp     =       298.0661 
PotEng   =     -2426.7951 E_bond   =         0.0000 E_angle  =         0.0000 
E_dihed  =         0.0000 E_impro  =         0.0000 E_vdwl   =       475.8102 
E_coul   =     10354.5774 E_long   =    -13257.1827 Press    =       326.0513 
Volume   =      6427.4873 
---------------- Step   119962 ----- CPU =     58.4550 (sec) ----------------
TotEng   =     -2044.0550 KinEng   =       392.0901 Temp     =       305.1928 
PotEng   =     -2436.1451 E_bond   =         0.0000 E_angle  =         0.0000 
E_dihed  =         0.0000 E_impro  =         0.0000 E_vdwl   =       471.3437 
E_coul   =     10349.9790 E_long   =    -13257.4678 Press    =        85.7584 
Volume   =      6427.4873 
---------------- Step   119964 ----- CPU =     58.4661 (sec) ----------------
TotEng   =     -2044.3997 KinEng   =       404.3905 Temp     =       314.7671 
PotEng   =     -2448.7902 E_bond   =         0.0000 E_angle  =         0.0000 
E_dihed  =         0.0000 E_impro  =         0.0000 E_vdwl   =       468.2996 
E_coul   =     10340.3558 E_long   =    -13257.4455 Press    =      -184.6232 
Volume   =      6427.4873 
---------------- Step   119966 ----- CPU =     58.4771 (sec) ----------------
TotEng   =     -2044.8436 KinEng   =       413.0273 Temp     =       321.4898 
PotEng   =     -2457.8710 E_bond   =         0.0000 E_angle  =         0.0000 
E_dihed  =         0.0000 E_impro  =         0.0000 E_vdwl   =       466.9011 
E_coul   =     10332.9127 E_long   =    -13257.6848 Press    =      -378.9159 
Volume   =      6427.4873 
---------------- Step   119968 ----- CPU =     58.4882 (sec) ----------------
TotEng   =     -2045.2160 KinEng   =       410.1178 Temp     =       319.2251 
PotEng   =     -2455.3338 E_bond   =         0.0000 E_angle  =         0.0000 
E_dihed  =         0.0000 E_impro  =         0.0000 E_vdwl   =       467.2317 
E_coul   =     10335.7528 E_long   =    -13258.3184 Press    =      -349.2478 
Volume   =      6427.4873 
---------------- Step   119970 ----- CPU =     58.5049 (sec) ----------------
TotEng   =     -2045.5268 KinEng   =       396.9245 Temp     =       308.9558 
PotEng   =     -2442.4513 E_bond   =         0.0000 E_angle  =         0.0000 
E_dihed  =         0.0000 E_impro  =         0.0000 E_vdwl   =       469.3094 
E_coul   =     10347.0350 E_long   =    -13258.7957 Press    =       -91.5564 
Volume   =      6427.4873 
---------------- Step   119972 ----- CPU =     58.5159 (sec) ----------------
TotEng   =     -2045.9224 KinEng   =       383.5375 Temp     =       298.5357 
PotEng   =     -2429.4599 E_bond   =         0.0000 E_angle  =         0.0000 
E_dihed  =         0.0000 E_impro  =         0.0000 E_vdwl   =       473.1419 
E_coul   =     10356.1478 E_long   =    -13258.7495 Press    =       242.6761 
Volume   =      6427.4873 
---------------- Step   119974 ----- CPU =     58.5272 (sec) ----------------
TotEng   =     -2046.4895 KinEng   =       377.8652 Temp     =       294.1205 
PotEng   =     -2424.3547 E_bond   =         0.0000 E_angle  =         0.0000 
E_dihed  =         0.0000 E_impro  =         0.0000 E_vdwl   =       478.5790 
E_coul   =     10355.5659 E_long   =    -13258.4996 Press    =       511.0016 
Volume   =      6427.4873 
---------------- Step   119976 ----- CPU =     58.5382 (sec) ----------------
TotEng   =     -2047.1188 KinEng   =       379.1361 Temp     =       295.1097 
PotEng   =     -2426.2549 E_bond   =         0.0000 E_angle  =         0.0000 
E_dihed  =         0.0000 E_impro  =         0.0000 E_vdwl   =       484.8098 
E_coul   =     10347.4622 E_long   =    -13258.5270 Press    =       684.3695 
Volume   =      6427.4873 
---------------- Step   119978 ----- CPU =     58.5491 (sec) ----------------
TotEng   =     -2047.7133 KinEng   =       382.7854 Temp     =       297.9503 
PotEng   =     -2430.4987 E_bond   =         0.0000 E_angle  =         0.0000 
E_dihed  =         0.0000 E_impro  =         0.0000 E_vdwl   =       490.2199 
E_coul   =     10338.0799 E_long   =    -13258.7985 Press    =       771.3312 
Volume   =      6427.4873 
---------------- Step   119980 ----- CPU =     58.5604 (sec) ----------------
TotEng   =     -2048.3077 KinEng   =       386.1986 Temp     =       300.6070 
PotEng   =     -2434.5063 E_bond   =         0.0000 E_angle  =         0.0000 
E_dihed  =         0.0000 E_impro  =         0.0000 E_vdwl   =       493.3850 
E_coul   =     10330.9767 E_long   =    -13258.8680 Press    =       761.5973 
Volume   =      6427.4873 
---------------- Step   119982 ----- CPU =     58.5770 (sec) ----------------
TotEng   =     -2048.9160 KinEng   =       388.6159 Temp     =       302.4886 
PotEng   =     -2437.5319 E_bond   =         0.0000 E_angle  =         0.0000 
E_dihed  =         0.0000 E_impro  =         0.0000 E_vdwl   =       494.2356 
E_coul   =     10326.7767 E_long   =    -13258.5442 Press    =       676.0171 
Volume   =      6427.4873 
---------------- Step   119984 ----- CPU =     58.5882 (sec) ----------------
TotEng   =     -2049.6157 KinEng   =       389.3322 Temp     =       303.0462 
PotEng   =     -2438.9480 E_bond   =         0.0000 E_angle  =         0.0000 
E_dihed  =         0.0000 E_impro  =         0.0000 E_vdwl   =       493.8971 
E_coul   =     10325.1261 E_long   =    -13257.9713 Press    =       576.1513 
Volume   =      6427.4873 
---------------- Step   119986 ----- CPU =     58.5996 (sec) ----------------
TotEng   =     -2050.2799 KinEng   =       385.7202 Temp     =       300.2347 
PotEng   =     -2436.0001 E_bond   =         0.0000 E_angle  =         0.0000 
E_dihed  =         0.0000 E_impro  =         0.0000 E_vdwl   =       493.6479 
E_coul   =     10327.6015 E_long   =    -13257.2496 Press    =       562.5559 
Volume   =      6427.4873 
---------------- Step   119988 ----- CPU =     58.6105 (sec) ----------------
TotEng   =     -2050.8282 KinEng   =       378.5657 Temp     =       294.6658 
PotEng   =     -2429.3939 E_bond   =         0.0000 E_angle  =         0.0000 
E_dihed  =         0.0000 E_impro  =         0.0000 E_vdwl   =       493.9721 
E_coul   =     10333.2643 E_long   =    -13256.6302 Press    =       653.3573 
Volume   =      6427.4873 
---------------- Step   119990 ----- CPU =     58.6213 (sec) ----------------
TotEng   =     -2051.4524 KinEng   =       374.1166 Temp     =       291.2027 
PotEng   =     -2425.5691 E_bond   =         0.0000 E_angle  =         0.0000 
E_dihed  =         0.0000 E_impro  =         0.0000 E_vdwl   =       494.1728 
E_coul   =     10336.8591 E_long   =    -13256.6009 Press    =       723.2834 
Volume   =      6427.4873 
---------------- Step   119992 ----- CPU =     58.6326 (sec) ----------------
TotEng   =     -2052.1412 KinEng   =       375.6422 Temp     =       292.3902 
PotEng   =     -2427.7834 E_bond   =         0.0000 E_angle  =         0.0000 
E_dihed  =         0.0000 E_impro  =         0.0000 E_vdwl   =       493.0287 
E_coul   =     10336.4192 E_long   =    -13257.2313 Press    =       679.0529 
Volume   =      6427.4873 
---------------- Step   119994 ----- CPU =     58.6436 (sec) ----------------
TotEng   =     -2052.8600 KinEng   =       382.0593 Temp     =       297.3851 
PotEng   =     -2434.9193 E_bond   =         0.0000 E_angle  =         0.0000 
E_dihed  =         0.0000 E_impro  =         0.0000 E_vdwl   =       490.0389 
E_coul   =     10333.0266 E_long   =    -13257.9848 Press    =       518.0030 
Volume   =      6427.4873 
---------------- Step   119996 ----- CPU =     58.6601 (sec) ----------------
TotEng   =     -2053.6480 KinEng   =       390.0995 Temp     =       303.6434 
PotEng   =     -2443.7475 E_bond   =         0.0000 E_angle  =         0.0000 
E_dihed  =         0.0000 E_impro  =         0.0000 E_vdwl   =       485.8453 
E_coul   =     10328.7814 E_long   =    -13258.3742 Press    =       300.2986 
Volume   =      6427.4873 
---------------- Step   119998 ----- CPU =     58.6710 (sec) ----------------
TotEng   =     -2054.4447 KinEng   =       395.2881 Temp     =       307.6821 
PotEng   =     -2449.7328 E_bond   =         0.0000 E_angle  =         0.0000 
E_dihed  =         0.0000 E_impro  =         0.0000 E_vdwl   =       481.4463 
E_coul   =     10327.1707 E_long   =    -13258.3498 Press    =       112.5419 
Volume   =      6427.4873 
SHAKE stats (type/ave/delta) on step 120000
  1 1 6.89334e-06
  1 109.47 0.000689549
---------------- Step   120000 ----- CPU =     58.6821 (sec) ----------------
TotEng   =     -2055.2288 KinEng   =       394.6157 Temp     =       307.1586 
PotEng   =     -2449.8444 E_bond   =         0.0000 E_angle  =         0.0000 
E_dihed  =         0.0000 E_impro  =         0.0000 E_vdwl   =       477.3772 
E_coul   =     10330.8514 E_long   =    -13258.0730 Press    =         3.9400 
Volume   =      6427.4873 
Loop time of 58.6822 on 1 procs for 10000 steps with 648 atoms

Performance: 29.447 ns/day, 0.815 hours/ns, 170.410 timesteps/s
99.7% CPU use with 1 MPI tasks x no OpenMP threads

MPI task timing breakdown:
Section |  min time  |  avg time  |  max time  |%varavg| %total
---------------------------------------------------------------
Pair    | 38.325     | 38.325     | 38.325     |   0.0 | 65.31
Bond    | 0.0029047  | 0.0029047  | 0.0029047  |   0.0 |  0.00
Kspace  | 8.7525     | 8.7525     | 8.7525     |   0.0 | 14.92
Neigh   | 4.0368     | 4.0368     | 4.0368     |   0.0 |  6.88
Comm    | 0.38668    | 0.38668    | 0.38668    |   0.0 |  0.66
Output  | 6.5506     | 6.5506     | 6.5506     |   0.0 | 11.16
Modify  | 0.54316    | 0.54316    | 0.54316    |   0.0 |  0.93
Other   |            | 0.08499    |            |       |  0.14

Nlocal:    648 ave 648 max 648 min
Histogram: 1 0 0 0 0 0 0 0 0 0
Nghost:    7076 ave 7076 max 7076 min
Histogram: 1 0 0 0 0 0 0 0 0 0
Neighs:    236149 ave 236149 max 236149 min
Histogram: 1 0 0 0 0 0 0 0 0 0

Total # of neighbors = 236149
Ave neighs/atom = 364.427
Ave special neighs/atom = 2
Neighbor list builds = 733
Dangerous builds = 0
undump          4
ERROR: Could not find undump ID (../output.cpp:637)
Last command: undump          4
