ITEM: TIMESTEP
10000
ITEM: NUMBER OF ATOMS
648
ITEM: BOX BOUNDS pp pp pp
0.0000000000000000e+00 1.8774349999999998e+01
0.0000000000000000e+00 1.8774349999999998e+01
0.0000000000000000e+00 1.8774349999999998e+01
ITEM: ATOMS id type xu yu zu vx vy vz 
16 2 2.08581 5.43303 4.52869 -0.00118287 0.000962599 0.0014077 
17 1 1.31542 4.9559 4.95159 -0.00840939 0.0328192 0.0240886 
18 1 1.93311 5.50453 3.54301 -0.017797 -0.0103938 0.00314127 
34 2 4.60173 5.29715 5.94674 0.00132366 0.00688784 0.00289333 
36 1 3.8891 5.58556 5.30722 -0.00265228 -0.0108452 -0.000608972 
526 2 1.84949 5.72617 2.00852 0.0028467 -0.00431748 -0.000179295 
528 1 1.11488 5.57113 1.34799 0.0114319 0.00803058 -0.012622 
529 2 2.69226 0.616596 0.910904 0.00469974 0.000953421 0.00131516 
530 1 2.85816 1.47409 0.423888 -0.00134974 0.00545106 0.00718948 
607 2 0.0512824 1.13131 3.9212 -0.00934775 -0.00404672 -0.00294251 
608 1 0.754645 1.72871 3.53598 0.00197545 -0.00572288 0.0152176 
622 2 2.19619 2.61416 3.56375 0.00397386 -0.00590249 -0.000834012 
623 1 2.21911 3.60036 3.39978 -0.00259276 -0.00666036 -0.00632802 
624 1 3.07827 2.21428 3.31471 0.00761015 -0.000981866 0.00414129 
440 1 4.29438 4.81972 0.13901 0.0208418 -0.00524531 0.00785692 
352 2 5.38764 1.82279 3.39362 -0.00399046 -0.00320796 0.00601047 
354 1 5.70734 1.01241 3.88463 0.00121498 -0.0059005 -0.00179122 
341 1 6.05895 4.4776 5.43479 -0.00424391 -0.0125196 0.00226644 
353 1 5.89373 2.62526 3.7097 -0.0133134 -0.00207159 0.0179871 
460 2 5.89389 1.89808 0.806756 0.0038561 -0.00185272 0.000183541 
462 1 5.82035 2.08506 1.78636 0.00306744 0.000582399 -0.000338573 
461 1 5.53254 0.985901 0.613487 0.00497225 -0.00274469 0.00231342 
300 1 1.3066 0.115055 4.95417 -0.0242092 0.0134676 0.00916158 
240 1 1.47699 2.88093 5.97308 0.011754 0.0129164 0.00909744 
91 2 10.2742 3.62103 3.29837 0.00614016 0.00619707 0.00623678 
92 1 9.57185 4.25181 3.62816 -0.0104228 -0.0120009 0.00584151 
93 1 10.807 4.06315 2.57678 -0.0158844 0.0139842 -0.00527436 
197 1 11.9078 5.61532 5.49717 -0.00324119 -0.00173182 -0.0185706 
250 2 9.4451 1.05645 2.72559 -0.00698334 0.00274154 0.00528795 
251 1 9.59589 0.98718 1.73945 0.00452522 -0.00563127 0.00763267 
252 1 9.75055 1.95265 3.04734 -0.00834087 0.00449992 0.00167004 
340 2 6.78685 4.05815 4.89237 -0.00115479 -0.00434449 8.3063e-05 
342 1 7.10631 3.2277 5.34876 -0.00612983 -0.0131245 -0.0123359 
347 1 10.3818 1.0645 5.22332 0.00393539 0.00382095 0.000695396 
198 1 11.6726 4.00374 5.37835 -0.00781809 -0.00321749 0.0105524 
346 2 11.2844 0.896629 5.61955 0.00391859 0.000504975 -0.000668236 
196 2 12.152 4.72415 5.87947 -0.00647993 0.0045376 -0.00187257 
220 2 8.84366 5.7106 4.07145 0.00432267 -0.00673331 -0.0014521 
221 1 8.04358 5.13371 4.23602 0.00833556 -0.0138801 -0.00692862 
204 1 7.92036 4.45579 19.1309 -0.016374 0.00410526 -0.0124871 
203 1 7.30439 2.94889 19.2592 -0.0164618 0.00348437 -0.020256 
453 1 11.7828 0.657143 0.846372 0.00104848 0.00422068 -0.0290256 
202 2 8.03828 3.49989 18.8619 -0.00107092 0.001088 0.00490585 
348 1 11.9858 1.30731 5.03695 0.00544611 -0.0132847 -0.0085211 
256 2 12.4854 4.58925 1.072 -3.70829e-05 -0.0104993 0.00137348 
226 2 7.66334 6.09633 0.623049 0.0039204 0.00385228 -0.00346874 
227 1 6.67641 6.0046 0.755542 0.00741773 -0.0238019 0.00359168 
609 1 -0.647871 1.68679 4.37134 -0.0100308 -0.00333531 -0.00488568 
545 1 18.0027 3.65309 2.73183 -0.00603817 -0.00250544 -0.00153835 
517 2 -0.662504 5.63874 4.74007 0.000340339 0.00305264 -0.00217942 
549 1 17.4973 3.95335 4.79101 -0.00433857 -0.00604486 0.0305859 
258 1 13.2277 3.92088 1.11889 -0.0105818 -0.0233498 -0.0146824 
334 2 13.5452 1.85418 4.06487 0.00791713 0.00915805 -0.0036486 
335 1 13.4659 2.31466 3.18074 6.91042e-05 0.0125 -0.00121381 
336 1 13.908 2.49384 4.74248 0.0230571 0.0037988 -0.00673198 
451 2 12.7811 0.604601 0.820584 0.00126535 -0.00263167 -0.00631826 
499 2 14.4985 2.85447 1.4053 0.00102543 0.00133968 -0.000763342 
500 1 15.4582 2.66719 1.61497 -0.000558777 0.00321783 0.00819105 
501 1 14.1412 2.13564 0.808971 0.000233227 -0.0140526 0.0183251 
544 2 17.7519 3.96169 1.8143 0.000176552 -7.33148e-05 -0.00241367 
546 1 16.9537 4.56149 1.87094 -0.00225017 -0.00290969 -0.00658085 
547 2 17.0858 3.07057 4.56443 0.00276413 -0.00197137 0.00183188 
548 1 16.1162 3.08222 4.80892 -0.00517679 -0.00599601 -0.0293388 
617 1 14.9724 0.461822 3.69475 0.00569902 0.0113115 -0.0301625 
257 1 12.8625 5.5122 1.14931 0.019027 -0.0164538 -0.0206021 
518 1 -1.5634 5.99112 4.99347 0.008683 0.0157071 0.00979149 
37 2 14.7299 3.64142 5.68231 -0.00413614 0.00633933 -0.00330454 
39 1 13.8969 4.19466 5.67694 0.000411197 0.0132077 0.000453162 
515 1 17.5454 2.66568 19.1163 0.0207366 -0.0352781 0.00341939 
209 1 -0.277778 4.77844 0.475102 -0.0131598 -0.000372548 -0.00797693 
519 1 -0.256002 6.23186 4.04511 0.0066009 0.00676908 0.00465288 
527 1 2.45799 6.44301 1.66813 0.0133261 -0.00545953 0.0161532 
67 2 1.11251 11.4445 2.95597 -0.00949448 0.00355847 -0.00227291 
133 2 2.15559 8.17188 5.23526 0.000934349 0.00108575 0.000295302 
134 1 2.29906 8.56087 4.32526 0.0166569 0.0278139 0.014151 
135 1 2.186 7.17388 5.17972 0.0118789 0.00291117 -0.0268805 
246 1 4.12717 11.7729 3.52936 -0.0162337 0.00389345 -0.00914088 
290 1 0.240509 7.98004 2.93937 0.000158356 -0.00660814 -0.0208325 
328 2 2.17677 8.93721 2.76279 -0.00299703 0.00084973 0.00154546 
329 1 1.9513 9.90892 2.69251 0.0100701 0.00508785 0.0180085 
330 1 2.57906 8.62528 1.90205 0.000532288 0.0120168 -0.000841293 
361 2 5.43711 10.4362 2.00479 -0.00121467 0.000631855 -0.00041787 
364 2 3.44406 7.71502 0.68502 0.00428201 0.00648852 -0.00500454 
365 1 4.05035 6.92385 0.604672 -0.0125866 -0.0067211 -0.0025544 
468 1 3.20445 11.2078 1.48677 -0.00041438 -0.0195624 -0.00934347 
68 1 0.516071 11.7852 2.22923 -0.0219205 -0.00322016 0.00473469 
466 2 2.87779 11.65 0.651444 7.82291e-05 -0.000683099 0.000465364 
467 1 2.14758 12.2942 0.878995 0.00197215 -0.00366297 0.014951 
189 1 4.15845 8.3711 5.40087 -0.00409054 0.00957007 0.00947761 
363 1 5.7737 10.0537 2.86525 -0.00395442 -0.0135814 -0.00567509 
69 1 1.2787 12.1735 3.62001 0.0204749 0.0165258 -0.0239906 
362 1 6.21124 10.7422 1.45063 0.001417 -0.00505318 0.000131008 
294 1 6.16953 9.02404 5.05947 0.0147662 -0.0134507 0.00998356 
188 1 5.15669 7.12282 5.73544 -0.00727647 -0.00311581 -0.0283915 
187 2 5.07933 8.11913 5.69834 -0.00273678 -0.00186612 -0.00442752 
489 1 1.21016 9.23703 6.12385 0.00179668 -0.000960732 0.0012862 
222 1 8.55011 6.58579 3.6869 -0.00245159 -0.00197949 0.0144686 
472 2 6.29368 12.1654 5.53543 0.00457609 -0.00107887 -0.0021095 
192 1 10.3042 6.51626 4.46534 -0.00497859 0.000348068 -0.00390122 
190 2 11.1267 6.97965 4.79519 -0.00789428 0.00341613 -0.000946358 
191 1 10.885 7.89126 5.12767 -0.00854149 0.012061 -0.0250899 
228 1 8.00623 6.85019 1.18351 -0.0132368 0.0137154 -0.00622552 
292 2 6.69867 9.63566 4.47132 -0.00400401 -0.0067063 6.45795e-05 
293 1 6.67635 10.5619 4.84769 0.000583188 -0.00923871 0.00657907 
394 2 7.82047 10.8188 0.829554 -4.39471e-05 -0.000710509 -0.00280929 
395 1 8.7091 10.4562 1.11046 0.00923486 0.0255338 0.00171145 
400 2 10.2477 10.172 1.86409 0.00359825 -0.00436157 -0.00427598 
401 1 10.4353 10.6145 2.74101 0.00470369 -0.01484 0.000775974 
402 1 11.0609 10.2228 1.28438 -2.42509e-05 0.010464 -0.00807051 
409 2 8.40479 7.98264 2.85196 0.00272458 -0.00517042 -0.00433289 
410 1 7.69351 8.34809 3.45239 0.00991264 -0.00122745 0.00178088 
411 1 9.07263 8.69948 2.65166 0.0168213 -0.0149494 0.00768997 
262 2 10.3443 11.6293 4.10464 -0.00481052 -0.00455194 0.00345301 
88 2 9.53632 9.54049 5.53348 -0.003022 0.00381013 0.00277703 
89 1 8.55057 9.50517 5.69798 -0.00400995 -0.00651209 -0.00537278 
90 1 9.78744 10.452 5.20777 -0.0110968 0.00390585 -0.00316487 
327 1 7.83799 12.2982 1.70674 0.0157892 -0.00474798 -0.00409917 
264 1 9.76378 12.3228 4.5314 -0.00954286 -0.0135594 0.011616 
263 1 11.193 12.0536 3.78875 -0.00123581 0.00203691 0.0219763 
289 2 -0.723873 7.72416 3.00643 -5.10593e-05 -0.000589534 -0.000862237 
3 1 12.9384 7.44926 3.84682 0.00145004 0.0140323 -0.00641686 
118 2 12.9132 10.3304 0.371196 -0.00232116 0.00424763 -0.00994923 
291 1 -1.25675 8.25781 2.34972 -0.010445 0.00332053 0.0107514 
120 1 13.4321 10.7286 1.12756 -0.00732096 -0.00918174 0.000577364 
316 2 14.3109 12.0667 2.11778 0.00221192 0.00423353 0.0044858 
318 1 14.8268 11.9427 2.96536 -0.018331 0.00285038 0.0168201 
484 2 16.4347 11.8273 4.00784 -0.00543477 0.00117672 0.00668169 
486 1 16.8363 10.9635 4.31209 -5.97718e-05 0.00676738 0.0154338 
496 2 16.3225 9.43002 1.44501 -0.00685543 -0.000181527 -0.000725688 
498 1 16.8176 10.0794 2.02213 -0.0178271 -0.00660563 0.0158946 
502 2 17.0117 9.43802 5.0843 -0.00156403 0.00242961 0.00513145 
503 1 17.0122 8.58424 4.56367 -0.00544157 0.00203337 0.00577009 
275 1 14.4445 7.21663 1.37712 -0.0107818 -0.00947405 0.0021186 
274 2 14.3636 6.71988 0.513001 0.000371264 -0.00213304 -0.00315681 
504 1 16.1007 9.59538 5.46553 -0.00134878 0.00780482 0.00344805 
305 1 15.6529 12.3297 0.899924 -0.000415112 -0.0181727 0.00394181 
304 2 16.1826 12.1267 0.0763789 0.0025569 -0.00051861 0.00156885 
534 1 14.8845 6.61748 5.21963 -0.00196321 -0.00626269 -0.0111881 
1 2 13.9365 7.5035 3.81767 0.00219614 0.00114769 -0.00518495 
2 1 14.239 8.33428 4.28493 0.0109026 0.0108123 -0.0279932 
532 2 15.7044 6.45258 5.76797 -0.00972605 0.000983509 0.00260221 
83 1 15.9626 12.2691 6.20881 -0.00436311 -0.00625287 -0.00518719 
97 2 14.4549 9.64155 6.07792 0.00109498 0.00147976 0.00121542 
98 1 13.9363 10.4959 6.04295 -0.0205798 -0.0115217 0.00458022 
497 1 16.2625 9.78989 0.513934 0.016437 0.00724798 0.000638146 
531 1 3.26032 -0.10587 0.516759 0.00423388 0.00595698 -0.00852005 
244 2 4.34293 12.7478 3.47578 4.18519e-05 0.000914456 0.00222466 
245 1 3.97993 13.1232 2.62293 0.00765302 0.0165682 0.00588865 
474 1 5.66336 12.5916 4.88653 -0.00427471 -0.010867 4.97915e-05 
310 2 1.54123 17.6424 2.48334 0.00419006 0.00604934 -0.00417768 
311 1 2.04665 18.3692 2.01814 -0.00432359 0.00159219 -0.0203871 
373 2 1.33626 13.8164 4.67113 0.00235335 0.00316369 -0.00222591 
375 1 1.74698 14.7043 4.46368 -0.0133028 0.0123684 0.00615145 
378 1 5.75739 15.1253 19.8745 0.0130225 -0.00551783 0.00014122 
619 2 2.83112 16.4452 4.49974 0.00620256 -0.00614559 -0.00293689 
620 1 2.42406 16.9426 3.73361 -0.00330769 -0.0225136 -0.00848909 
621 1 2.51131 16.8401 5.36103 -0.0157195 -0.0143302 -0.00731639 
640 2 4.40073 14.5498 5.74106 0.000740967 -0.004987 0.00245724 
641 1 3.87483 15.33 5.40236 -0.0073221 -0.00733969 0.00953971 
642 1 3.86958 13.7114 5.6186 0.00499941 -0.00801956 0.0047517 
379 2 5.31298 15.7908 2.75292 -0.000737543 -0.00327376 -0.0040004 
299 1 0.575369 -0.6624 6.19009 0.00460035 -0.0238058 0.0027114 
137 1 21.1782 15.6066 20.2554 0.00230546 0.0108921 -0.00382016 
573 1 4.71355 -1.79632 19.404 0.020986 -0.0149094 -0.0130388 
181 2 6.21388 -0.31828 5.09629 0.00426929 0.00317214 -0.00998173 
380 1 4.47386 15.8599 3.29247 0.00149234 -0.0115831 0.00052824 
381 1 6.10512 15.9049 3.35249 0.00199894 -0.0245421 -0.00358469 
298 2 1.45526 -0.453352 5.76337 -0.00408569 0.00258459 -0.00218694 
374 1 0.343541 13.9161 4.73885 0.00321511 -0.00928569 0.0283947 
312 1 0.587791 17.654 2.18199 -7.807e-05 -0.000227344 0.00916494 
571 2 4.89395 -0.967133 18.875 0.0065835 -0.00137007 0.0032938 
376 2 5.86088 14.8751 18.9118 0.00386049 0.000113102 -0.00230423 
136 2 20.7511 14.9505 19.6333 0.000256902 0.00613965 0.00259446 
483 1 18.8681 13.8 0.621379 0.00265974 0.00276278 0.0240758 
647 1 19.0899 15.5273 19.6538 0.0130709 0.0146498 -0.0250555 
464 1 8.74697 18.2943 3.16603 0.0142778 0.000958431 0.00342567 
182 1 6.44396 -1.02038 5.77017 2.67672e-05 0.00802747 -0.00348838 
183 1 6.88074 -0.33995 4.35142 0.00857708 -0.00262216 -0.00593844 
286 2 8.77561 13.3825 5.36152 -0.00253622 0.00341472 0.00366762 
325 2 8.24617 13.1756 1.95877 0.00335103 0.00206823 -0.00767635 
326 1 8.96747 13.0257 2.63497 0.00404781 0.0152593 -0.00549618 
287 1 8.70374 14.3773 5.43432 -0.0150428 0.00179903 0.013466 
337 2 9.0497 15.8535 1.24027 -0.00427698 -0.00112558 -0.00569252 
338 1 8.69186 16.2233 0.382838 -0.00893829 0.00562226 -0.000833437 
339 1 8.55867 15.0137 1.47169 -0.00209171 -0.00368215 -0.0103433 
350 1 8.87264 16.719 4.9168 -0.00521376 0.00729264 0.00781581 
351 1 7.99953 16.2855 6.22693 -0.00797924 -0.0172202 -0.00215503 
463 2 8.29081 17.4991 3.56553 0.0116706 0.000232208 -0.00100941 
465 1 8.21817 16.7764 2.87828 0.0103602 0.00386668 -0.00469125 
158 1 10.8233 15.5419 1.27997 -0.00909956 -0.00519541 -0.0185179 
157 2 11.7591 15.2543 1.07573 -0.00177722 0.00491205 0.000861326 
159 1 11.7847 14.8174 0.1766 0.0192869 -0.00598794 0.00677696 
349 2 8.8011 16.066 5.67079 -0.00028682 0.000190227 0.00213765 
125 1 12.0586 14.1025 2.37376 0.0151664 0.00741145 -0.000110017 
124 2 12.3329 13.5962 3.19137 -0.00529362 0.00095655 0.00275226 
323 1 8.6314 13.2141 19.0215 0.00596369 -0.00114715 0.00205574 
288 1 7.89551 12.9671 5.59131 -0.00535951 -0.0084085 -0.0286359 
162 1 12.4114 15.3551 5.5536 -0.00289955 0.00634243 0.0104787 
485 1 17.0676 12.5763 4.20367 0.00291375 0.00338563 -0.0285468 
482 1 17.7699 12.5994 0.759721 -0.00287634 0.00620226 0.00971638 
153 1 13.0387 16.5325 1.5318 -0.00562662 0.0106381 -0.0029404 
132 1 18.1601 -0.191453 2.98905 -0.0141954 0.014466 0.00624392 
616 2 15.3181 -0.41691 3.36558 0.00136599 -0.00326734 0.00423147 
317 1 13.4927 12.6112 2.30229 -0.0106845 -0.00975255 -0.0113552 
606 1 -1.65895 17.0656 6.15945 -0.00458533 0.0212621 -0.00514275 
126 1 12.9354 14.1664 3.74993 -0.0063489 -0.00931032 0.0143384 
151 2 13.905 17.0313 1.55943 -0.000710269 0.0016404 0.00550287 
452 1 13.0707 -0.332074 1.01739 -0.00966288 -0.00462563 0.00027206 
130 2 17.6847 -0.826265 2.37992 0.00917069 -0.000825838 0.00393056 
131 1 16.6972 -0.735398 2.50869 0.00438709 -0.00195803 -0.0318116 
618 1 14.5816 -0.914011 2.90671 0.00495791 -0.00765961 0.00323548 
152 1 14.62 16.4816 1.12744 -0.0046521 -0.000998102 0.00232721 
280 2 17.3565 14.1816 4.99708 -0.00121666 -0.00304808 0.00657846 
281 1 17.335 14.3217 5.98699 0.0133824 -0.0133628 0.00834921 
282 1 16.7817 14.8676 4.55089 -0.00677218 0.00239652 0.022111 
388 2 15.5158 15.1469 0.625964 0.000174973 -0.00467688 -0.00249345 
389 1 15.1922 14.2058 0.72365 -0.00114773 -0.00456289 -0.00580244 
390 1 16.4983 15.1439 0.439792 -0.0012272 -0.0056877 -0.00991004 
631 2 15.6286 16.5821 5.46806 -0.00264667 -4.51801e-05 0.00108049 
632 1 14.7988 16.0406 5.60302 0.00092272 -0.00851787 -0.0109383 
633 1 15.4776 17.2469 4.73644 -0.00243533 0.00577251 0.00633036 
648 1 17.884 16.5428 20.0796 0.00348451 -0.0167315 0.0225464 
646 2 18.1408 15.7876 19.4764 0.00343746 -0.00132625 0.00322566 
53 1 12.9767 12.9315 6.00722 0.00746773 -0.00488615 -0.00124172 
160 2 13.3093 14.9401 5.40694 -0.00455875 0.00462124 0.00519147 
481 2 18.7434 12.8089 0.668184 -0.00251135 0.00250636 0.00499244 
77 1 5.6961 1.11904 6.31429 -0.00758522 -0.0164253 0.0069547 
627 1 2.46737 0.976909 8.06172 -0.00366741 0.000753305 0.00337079 
625 2 3.21934 0.52093 7.58566 -0.00322847 -0.000677194 0.00543181 
35 1 4.18954 5.0908 6.83417 0.00286543 0.00232659 0.00254828 
169 2 4.44958 4.31183 10.4358 -0.00354817 0.000327749 -0.000821963 
170 1 3.88219 4.68418 9.70134 -0.0105937 -0.0137715 -0.00252715 
171 1 4.48047 4.96169 11.1952 0.00267433 0.0143296 -0.013059 
207 1 0.95137 0.973331 9.41391 -0.000241258 0.00156117 0.00854215 
217 2 2.96325 5.12149 8.06643 0.000558438 0.000296537 0.0009723 
218 1 2.39585 5.69245 8.65979 0.00386122 0.0136967 -0.00877783 
219 1 2.40682 4.76447 7.31615 0.00731207 0.0216131 -0.0142335 
238 2 0.941255 3.30571 6.70285 8.82515e-05 0.000865478 0.0075627 
239 1 0.960562 2.72119 7.514 -0.0222933 -0.0179987 -0.00548397 
372 1 4.42135 21.1935 11.1765 -0.023659 -0.0218228 -0.000765819 
370 2 4.97225 20.4899 11.6253 -0.00286572 -0.00337617 0.00273342 
78 1 4.53182 1.38553 7.42787 0.00389182 0.0154433 0.0113214 
205 2 1.36018 1.81024 9.04996 0.0052979 -0.0035831 0.00292794 
535 2 2.54068 0.659861 12.1055 -0.000593882 -0.00336099 0.00302811 
206 1 0.963702 2.60329 9.51242 0.00674175 0.00239067 -0.0060642 
76 2 5.43674 1.66757 7.10918 0.00285725 0.00272025 -0.00285964 
186 1 6.25 3.65211 9.79206 0.00256948 -0.0151631 -0.00505562 
75 1 19.14 4.10553 11.0617 -0.00164635 0.0011829 0.00871928 
371 1 5.62698 20.1115 10.971 0.000472731 0.00455521 0.00146928 
626 1 2.85779 0.0033295 6.81018 0.0007538 0.0199308 -0.0101654 
536 1 3.47944 0.991268 12.0111 -0.00972672 0.0194902 -0.00740407 
28 2 1.50099 5.46783 12.3465 -0.000487583 -0.00170502 -0.000864925 
612 1 8.64837 1.52869 6.96337 0.00287143 0.00911885 0.00972503 
610 2 7.96602 2.2395 6.79267 0.000603119 0.00326985 -0.00545655 
611 1 7.11837 2.00954 7.27082 -0.00156165 0.00621396 -0.00788663 
31 2 11.1794 4.84726 8.39607 -0.00699976 -0.000128071 0.00964221 
32 1 11.564 4.07537 8.90228 -0.0152764 0.000739163 0.0172416 
33 1 11.5585 4.86119 7.47081 -0.00937069 -0.0152557 0.00845054 
184 2 7.23802 3.69072 9.64267 0.0020478 -0.00157475 -0.005004 
185 1 7.42552 4.13425 8.76624 -0.00448177 -0.0114237 -0.011389 
214 2 8.63805 5.46187 7.57715 -0.00202439 0.00324633 -0.000554306 
215 1 8.7574 5.13787 6.63866 -0.0200554 0.0162075 -0.00730772 
216 1 9.4452 5.22353 8.11724 0.00257389 -0.0160919 -0.0159844 
223 2 12.1948 2.92553 10.5508 -0.00271347 -0.00174767 -0.00837942 
224 1 12.352 3.34775 11.4436 -0.010326 0.0192862 -0.0169758 
225 1 11.2215 2.72147 10.4454 -0.00397751 0.00905392 -0.0177471 
595 2 9.60505 2.29348 10.513 0.00484725 -0.0040957 -0.00294796 
596 1 8.7565 2.81252 10.4103 0.00291875 -0.00871531 -0.0102562 
597 1 9.39445 1.31728 10.5649 0.0106138 -0.00603392 -0.0160273 
589 2 6.72097 18.7801 10.1711 -0.00084424 0.00212169 -0.000399362 
429 1 6.33031 4.83028 12.4373 0.00647029 -0.000828803 0.0288189 
428 1 7.36178 4.13475 11.3795 -0.0200307 0.0205544 -0.0110347 
427 2 7.27445 4.53449 12.292 0.00236354 0.000278739 -4.13434e-05 
38 1 14.8918 3.29161 6.60504 -0.0138746 -0.0115898 -0.00840346 
600 1 12.85 1.67868 9.78104 0.017711 -0.00367252 0.0237516 
578 1 14.1119 0.330668 10.8131 0.0105888 0.0240486 0.007619 
540 1 18.0197 4.36358 7.39248 -0.0038598 0.0032436 -0.00451287 
533 1 15.4385 6.2214 6.70384 -0.0231491 0.00802858 0.000518754 
58 2 15.6344 6.02398 11.2395 0.00552949 0.00279483 -0.00234445 
73 2 18.5426 3.73183 10.3522 0.00808565 0.0028842 -0.000384682 
74 1 17.6567 3.49688 10.7522 -0.00268065 0.0163557 -0.0162773 
538 2 17.4442 4.79917 8.08461 0.00391902 0.00309664 0.002042 
539 1 17.8081 4.59955 8.9944 0.0187668 0.00965128 -0.00247387 
598 2 13.2769 0.952672 9.24194 0.00350668 0.00382918 0.0023634 
599 1 14.0759 1.31809 8.76433 -0.0143698 0.0126744 -0.0207332 
601 2 15.6219 1.9048 8.05086 -0.00300398 0.00116602 -0.00112966 
602 1 16.1423 1.28226 8.63538 -0.0156539 -0.0112216 -0.00308543 
603 1 15.9751 2.83439 8.15625 0.00662241 -0.00404663 0.0124705 
543 1 15.9808 4.69528 12.3168 0.0222779 -0.020643 -0.027479 
521 1 16.5822 6.15867 8.23944 0.00273983 0.0104803 -0.0265762 
579 1 13.3388 0.0278456 12.2192 -0.012572 -0.0197674 -0.0145497 
42 1 1.7869 6.37432 10.8882 -0.00571958 0.00282006 0.00216676 
40 2 2.02653 6.91983 10.0851 -0.00185331 0.00082129 0.00196359 
41 1 2.70037 7.61269 10.3417 0.00187063 -0.00283997 0.00204846 
109 2 4.18191 8.16117 11.1313 0.000536773 -0.00157206 0.000388419 
19 2 0.0577602 8.32484 9.0829 -0.00183234 0.00792158 -0.000956716 
20 1 0.782856 7.66914 9.29337 -0.0187154 -0.00926948 0.00363179 
21 1 0.318071 8.86392 8.28188 -0.00278721 -0.0273208 -0.0249673 
110 1 4.61742 8.26334 10.2369 0.00642992 0.00830687 0.00438394 
111 1 4.31913 8.99497 11.666 0.00879578 -0.0126937 0.0156344 
259 2 5.40031 11.5207 8.17847 0.00662931 -0.00230024 -0.00904801 
261 1 4.58148 12.0832 8.29287 0.0149511 0.00900141 -0.00489929 
487 2 0.568426 9.73317 6.70868 -0.00528007 0.00368359 -0.0104589 
473 1 5.79267 11.8932 6.35693 0.0118647 -0.00757818 0.000185044 
260 1 5.21222 10.5903 8.49327 0.000771385 0.00478299 0.00844625 
104 1 5.02316 8.21774 7.58507 -0.00914391 -0.00524333 0.00994815 
491 1 19.0149 11.3043 7.44682 0.00875416 0.00698472 0.00167096 
8 1 2.03568 12.4153 8.25935 -0.00681526 0.00420449 0.0143849 
121 2 2.56172 12.4745 11.7342 0.00261727 0.00501019 0.00134221 
241 2 4.46329 10.4485 12.335 0.00285009 0.00127907 0.000818166 
242 1 3.84589 11.149 11.9771 0.0152374 0.00402263 -0.0151866 
243 1 5.39808 10.8035 12.3485 0.00387331 -0.00233282 0.0264929 
103 2 5.2182 8.52953 8.51499 0.0111639 -0.00539624 0.00573744 
105 1 6.20669 8.52903 8.66627 0.01506 0.00511814 -0.0194939 
62 1 4.46559 6.79082 12.0537 -0.0143357 -0.00994148 -0.0112665 
506 1 0.344355 9.83282 11.7866 -0.0269962 -0.017232 0.019538 
123 1 1.57788 12.3695 11.5892 0.00220667 -0.00551228 0.0117234 
213 1 11.4949 6.5253 9.07655 0.00934384 -0.0141162 0.0141377 
45 1 8.0343 7.04568 8.45638 -0.00530324 -0.000827895 -0.00148695 
57 1 7.62436 12.0303 11.8422 0.0140973 -0.010425 0.0167749 
4 2 9.99477 9.42644 9.05421 -0.000314581 0.00309368 -0.00339537 
5 1 10.6416 8.75095 9.40821 0.014605 0.0104301 -0.0167358 
6 1 9.08313 9.01892 9.00081 0.00921005 -0.0167826 -0.01398 
26 1 9.76554 11.5174 10.2402 -0.00510594 -0.00513007 -0.00525642 
43 2 7.80957 7.82621 9.03972 -0.00726441 -0.00229621 -0.000277745 
44 1 8.02606 7.60492 9.9906 -0.0124748 -0.00547332 0.000165499 
235 2 8.55173 7.09417 11.4711 0.00561023 -0.00052746 0.00365624 
343 2 11.1837 6.86507 12.356 0.0030511 -0.00207362 0.000890271 
344 1 10.2417 6.84977 12.0206 0.0114906 -0.026776 -0.0216309 
25 2 9.27809 12.33 10.5597 -0.00142181 -0.00386295 -0.00286294 
284 1 10.5673 10.8269 8.19469 -0.00348893 0.0203442 0.0323857 
283 2 10.6671 11.727 7.77041 0.000551241 0.0048801 0.000522648 
237 1 8.56574 7.98584 11.9235 -0.000774835 0.00917436 -0.015263 
285 1 9.80395 11.9898 7.33929 -0.00210803 -0.000866303 0.00233945 
55 2 6.87707 11.5987 12.3474 -0.000750294 -0.000980575 0.00291312 
54 1 12.3696 11.6974 6.88765 0.00862003 0.00843013 0.0181944 
212 1 11.7626 7.19299 10.5426 0.00893952 0.0143975 0.00122659 
211 2 11.799 7.34881 9.55544 -0.00464287 0.000154437 -0.00152311 
236 1 8.07393 6.43386 12.0505 -0.00298973 0.0119809 0.010845 
488 1 -0.337877 9.73089 6.28605 -0.0105606 -0.0396582 0.00114522 
60 1 15.8959 6.26635 10.3052 -0.011562 0.0169362 -0.0034461 
141 1 -0.29126 11.7234 11.2893 0.0186852 0.000354031 -0.0159277 
505 2 -0.268449 10.021 11.0191 5.61526e-05 -0.0032703 0.00138205 
507 1 -0.0843451 9.37389 10.2792 0.0106215 -0.00428761 0.0048835 
490 2 18.6985 12.136 7.90324 0.000106903 0.00293591 0.00304756 
52 2 13.1383 11.9962 6.32214 0.00362534 -0.00338541 0.00516942 
492 1 17.7171 12.2485 7.74814 -0.00207156 -0.00984181 0.00768646 
59 1 14.9113 6.63921 11.5535 0.000415091 -0.0118796 0.0145792 
99 1 14.3792 9.24287 6.99188 0.00212489 -0.00968036 -0.00357042 
86 1 14.0378 12.1159 11.1102 -0.0106183 -0.0225309 0.00751631 
95 1 15.4053 10.616 11.7986 -0.00573082 -0.0130186 0.015153 
247 2 14.8803 11.0684 9.72174 -0.00934167 -0.00402117 -0.000892987 
248 1 15.3659 11.6847 9.10178 0.0131783 -0.00595764 0.0148676 
249 1 14.6 10.2477 9.22395 0.0338572 -0.0184162 -0.00149089 
358 2 14.098 8.66367 8.75718 -0.00627614 -0.00239092 -0.000555713 
359 1 13.2154 8.25558 8.99047 -0.00788919 -0.00520604 -0.0115705 
360 1 14.7885 7.94419 8.68206 -0.000286341 0.00112606 0.0207663 
520 2 16.1345 7.04289 8.37244 0.00247746 0.0054078 0.00597493 
522 1 16.8281 7.75803 8.459 0.00164555 0.00656629 0.0030535 
82 2 15.9807 12.2439 7.20833 -0.000971617 0.00130471 -0.00506849 
96 1 17.0306 10.516 11.9203 -0.00633672 -0.0306343 0.00865945 
94 2 16.1847 10.7056 12.4187 -7.76771e-05 0.00619582 0.00530407 
638 1 5.90201 15.4907 6.6703 0.0106789 -0.0106387 0.0140451 
7 2 2.91622 12.5421 8.71605 -0.000514571 -0.0025847 0.00411421 
9 1 2.77592 12.5818 9.70537 0.0111163 0.000368061 0.00564264 
107 1 5.98083 12.8917 9.06712 0.0220297 -0.0151467 0.00157262 
639 1 5.93344 16.8141 7.62647 0.00666026 -0.00283302 0.00339129 
154 2 4.84441 17.3434 8.74363 -0.00505492 -0.00287882 -0.00619224 
155 1 4.38451 16.6125 9.24788 0.012175 -0.0076073 0.00264091 
156 1 4.20976 18.1038 8.60603 -0.0108824 -0.00309669 0.0193754 
144 1 0.203923 15.154 9.0144 0.00236077 0.00232708 4.39925e-05 
470 1 2.16815 15.4997 10.2814 -0.00413025 0.00486388 0.017512 
471 1 0.771961 15.4106 11.1237 -0.0176606 -0.00532287 -0.00595558 
13 2 3.99051 15.442 10.5039 0.00656017 -0.00170695 0.00047513 
15 1 4.16561 15.878 11.3866 -0.0247987 -0.0193391 0.0154731 
14 1 4.62599 14.6804 10.3764 0.0061024 -0.00390338 0.0112338 
469 2 1.18021 15.6496 10.2426 -0.00464089 -0.00277684 0.000755458 
122 1 2.72209 13.1428 12.4606 0.00293862 0.000567198 0.00536367 
475 2 0.741646 18.253 10.5105 -0.00556939 -0.00641392 0.0058991 
477 1 1.46065 18.5058 11.1579 0.00268222 -0.0185436 0.00149241 
476 1 0.81801 17.2805 10.2906 -0.00881802 -0.00245447 -0.012778 
637 2 6.45464 16.2682 6.97046 0.00255661 0.00205889 -0.00391758 
615 1 12.0209 -0.146613 6.61895 0.0154632 -0.00186551 -0.0121445 
27 1 9.92488 12.958 10.9925 0.00701476 0.00745206 -0.0319256 
590 1 6.27462 18.2256 9.4687 0.0160158 -0.00610125 -0.00464779 
106 2 6.505 13.6829 9.38194 0.00327725 -0.00351561 0.00355056 
613 2 12.4743 -0.703595 7.3148 0.000271234 0.00400089 0.00240617 
22 2 10.0349 16.7875 7.86241 0.00532485 -0.00569852 -0.00218512 
23 1 9.45384 16.4525 7.12065 0.00377459 0.0032708 -0.00502219 
24 1 10.7709 17.3476 7.48228 0.013357 -0.0135856 0.0017723 
108 1 7.47125 13.4355 9.45374 0.00877295 0.0184847 0.00536549 
297 1 10.1316 15.3937 12.1249 -0.00934108 -0.012305 0.000884659 
301 2 11.1874 14.3025 11.3331 -0.00186811 0.0031843 -0.000341545 
303 1 11.567 14.2956 10.408 0.00136239 0.0015624 0.00099657 
591 1 7.65663 18.4547 10.3078 -0.000984338 0.00987215 0.0190396 
592 2 9.28367 17.8285 10.2654 -0.00110193 0.00695881 0.000936062 
593 1 9.52774 17.638 9.31452 0.0137882 -0.00708036 0.00760045 
594 1 9.7704 17.1957 10.8676 -0.00118719 0.0238097 0.0186824 
79 2 11.5725 14.4305 8.37109 -0.00390387 -0.000451648 -0.00367874 
81 1 11.023 15.2469 8.19359 -0.0179902 -0.00391375 0.0241047 
80 1 10.9882 13.62 8.33025 0.00566051 -0.00710341 -0.00826729 
560 1 6.81329 14.8904 10.5648 0.00862095 0.00637624 -0.00438397 
295 2 9.49727 16.1155 12.4018 -0.00122271 -0.00545838 0.0016419 
559 2 6.99509 15.4692 11.3597 -0.00193403 -0.00308884 0.00490861 
561 1 7.98273 15.5697 11.48 -0.0037318 0.00936886 0.00917076 
302 1 11.7932 13.795 11.9458 0.000272725 0.0114561 0.00437758 
614 1 12.6403 -0.148563 8.12989 -0.00865031 0.0135034 -0.00224103 
577 2 14.1882 -0.107015 11.709 -0.000657702 0.00433814 -0.00101879 
550 2 16.8089 18.607 9.56409 -0.00161433 0.00320357 -0.0013954 
552 1 17.4734 18.2582 10.225 -0.00756403 0.00239112 0.00416095 
85 2 13.7383 12.524 11.9725 -0.00631647 0.000670778 -0.00195915 
143 1 -0.266421 13.9405 8.02812 0.00911679 0.00953437 -0.012063 
142 2 -0.440446 14.8876 8.29758 -0.00295876 0.0025337 0.0047539 
139 2 -0.258303 12.6935 11.5299 0.00183328 -0.00364425 0.00255266 
140 1 -0.800185 13.2183 10.8735 0.0199625 0.00330281 -0.00689408 
604 2 -0.828344 17.3112 6.65921 0.0025645 0.00489603 -0.00901149 
368 1 16.9147 14.6757 9.57538 0.00289752 0.0106386 0.0132953 
605 1 -0.527324 16.5319 7.20885 0.00390122 -0.00928742 -0.0298618 
84 1 15.1401 12.6498 7.56719 -9.08523e-05 0.0033292 -0.00529661 
584 1 14.7857 17.443 9.16026 0.0128863 0.0076061 -0.0351973 
87 1 14.528 12.906 12.4525 -0.000611985 -0.00665523 -0.00549777 
10 2 14.0849 14.1295 8.11741 0.00868821 -0.00392337 0.00302566 
11 1 13.1065 14.1161 8.32383 0.00742737 -0.0077196 -0.00322296 
12 1 14.4406 15.0548 8.24872 0.000129881 0.00179906 -0.0139863 
72 1 16.234 14.0704 11.672 -0.040355 -0.00177266 -0.00914319 
161 1 13.6847 14.6393 6.28366 0.00236918 0.0087253 0.00363296 
367 2 16.4035 13.93 10.0027 0.00190707 0.00368227 5.44596e-06 
369 1 15.6283 13.6816 9.42174 0.00188372 0.0147072 -0.00467771 
551 1 17.1227 18.4035 8.63669 -0.00727278 -0.0208647 0.00199004 
583 2 14.3264 16.6555 8.74933 -0.00272495 0.000919472 -0.00489946 
585 1 13.3987 16.9139 8.47981 0.00746033 0.0129165 -0.0282715 
113 1 15.072 17.0292 12.4707 0.00152755 -0.0102722 -0.0089186 
456 1 4.55821 2.41793 -0.0226027 0.00468411 -0.00921468 -0.0180853 
454 2 3.90443 2.85891 -0.637513 -0.00372244 -0.00233531 -0.00418536 
208 2 0.0164513 5.3577 -0.285086 -0.000434465 -0.00140988 -0.00382737 
455 1 3.9224 2.40158 -1.52663 0.0089665 0.0296102 -0.0203514 
439 2 4.81833 5.60441 -0.192258 0.00105784 0.00324559 -0.00337177 
537 1 2.13883 1.03074 12.9427 -0.00843937 0.00607089 -0.00495454 
29 1 2.30953 5.202 12.8714 -0.00576707 0.00302937 0.00967048 
61 2 4.64727 5.95381 12.5698 -0.002739 -0.000234845 0.000405011 
63 1 4.1808 5.99908 13.4532 -0.0250114 -0.0057579 -0.0110725 
30 1 0.861007 5.95254 12.9427 -0.0176975 -0.0185279 -0.00563797 
49 2 6.06203 1.87314 14.4198 -0.00372829 -0.000852817 -0.000818762 
199 2 2.78429 5.47017 14.8123 -0.0022115 -0.00229337 -0.000144985 
200 1 2.14052 6.04871 15.3131 -0.0212283 0.00179688 -0.0292083 
201 1 2.48559 4.51721 14.8636 0.00969638 -0.00505279 0.0177339 
313 2 3.88749 1.4052 15.8095 0.00107158 -6.8629e-05 -0.00260379 
315 1 4.76331 1.70234 15.4292 0.0132153 -0.00788955 0.0191421 
413 1 4.54467 5.73075 15.5069 0.0028034 0.0299847 0.00361634 
553 2 1.65187 1.92927 14.2423 0.00222456 0.00888656 0.0040285 
554 1 2.46181 1.8284 14.8201 -0.00383962 -0.0139741 0.00852859 
314 1 3.88807 0.410254 15.9099 -0.0179006 -0.00198067 -0.0214582 
555 1 0.842958 2.04274 14.8192 -0.00540908 -0.0259224 0.000110912 
441 1 5.23645 5.37855 -1.07213 0.000434548 0.00383026 -0.00381669 
412 2 5.50389 5.55382 15.7273 -0.00198409 -0.00375773 -0.00245146 
51 1 5.84488 2.01333 13.4538 -0.0096893 0.0241247 0.00412437 
345 1 11.277 6.22304 13.1169 0.00295408 -0.00314749 -7.99573e-06 
50 1 6.52514 2.68367 14.7784 -0.0142467 -0.00444783 0.0209443 
636 1 6.89718 0.653306 15.7512 -0.008274 -0.00618549 0.000480269 
425 1 9.66956 1.79885 14.6839 0.0163372 0.0104313 -0.0100226 
424 2 10.3348 1.23335 15.1713 -0.000798489 0.00399304 0.0058391 