ITEM: TIMESTEP
0
ITEM: NUMBER OF ATOMS
648
ITEM: BOX BOUNDS pp pp pp
0.0000000000000000e+00 1.8774349999999998e+01
0.0000000000000000e+00 1.8774349999999998e+01
0.0000000000000000e+00 1.8774349999999998e+01
ITEM: ATOMS id type xs ys zs ix iy iz
16 2 0.134118 0.287796 0.224201 0 0 0
17 1 0.0868019 0.30599 0.218767 0 0 0
18 1 0.149251 0.277145 0.176693 0 0 0
34 2 0.250028 0.212329 0.279267 0 0 0
35 1 0.25571 0.260286 0.295612 0 0 0
36 1 0.201517 0.209761 0.263792 0 0 0
208 2 0.0103604 0.315406 0.0194547 0 0 0
298 2 0.197978 0.0174158 0.312177 0 0 0
300 1 0.154099 0.0354356 0.293487 0 0 0
352 2 0.306177 0.219507 0.142287 0 0 0
354 1 0.286636 0.236127 0.186348 0 0 0
440 1 0.286248 0.297263 0.0227076 0 0 0
454 2 0.23295 0.188782 0.00281075 0 0 0
456 1 0.272337 0.170127 0.0292708 0 0 0
517 2 0.00779574 0.331642 0.179892 0 0 0
526 2 0.143232 0.28139 0.0685403 0 0 0
527 1 0.181005 0.25893 0.0426928 0 0 0
528 1 0.105094 0.284987 0.0348955 0 0 0
529 2 0.124451 0.0712067 0.0174211 0 0 0
530 1 0.162952 0.100017 0.0343655 0 0 0
545 1 0.0327031 0.13535 0.00854517 1 0 0
607 2 0.0938078 0.0733011 0.208829 0 0 0
608 1 0.134178 0.0793141 0.178277 0 0 0
609 1 0.0691843 0.117879 0.206397 0 0 0
622 2 0.220178 0.10134 0.131074 0 0 0
623 1 0.248369 0.0594199 0.124191 0 0 0
624 1 0.253885 0.137513 0.143513 0 0 0
626 1 0.303486 0.050006 0.302667 0 0 0
627 1 0.308292 0.127861 0.282229 0 0 0
91 2 0.562352 0.273278 0.101529 0 0 0
92 1 0.512304 0.281875 0.10607 0 0 0
93 1 0.579308 0.311552 0.0724259 0 0 0
181 2 0.450576 0.0662857 0.184029 0 0 0
182 1 0.417308 0.0660721 0.222663 0 0 0
183 1 0.445942 0.0201109 0.162915 0 0 0
197 1 0.605296 0.303961 0.325914 0 0 0
203 1 0.457546 0.210255 0.00276441 0 0 1
220 2 0.429114 0.301297 0.129057 0 0 0
221 1 0.435574 0.299094 0.179582 0 0 0
250 2 0.577012 0.125326 0.214628 0 0 0
251 1 0.53368 0.0987645 0.210609 0 0 0
252 1 0.56669 0.170059 0.192451 0 0 0
340 2 0.401866 0.309604 0.282102 0 0 0
342 1 0.417017 0.274567 0.315899 0 0 0
347 1 0.61004 0.136159 0.30823 0 0 0
353 1 0.351401 0.242785 0.138773 0 0 0
453 1 0.654117 0.0792209 0.165521 0 0 0
460 2 0.40438 0.132506 0.055309 0 0 0
461 1 0.385855 0.096414 0.0244291 0 0 0
462 1 0.415101 0.107948 0.0986841 0 0 0
625 2 0.337028 0.0873586 0.293771 0 0 0
130 2 0.871338 0.0486792 0.039114 0 0 0
131 1 0.85468 0.0536157 0.0870464 0 0 0
132 1 0.911886 0.0794712 0.0364369 0 0 0
258 1 0.720045 0.311708 0.103001 0 0 0
334 2 0.829662 0.188236 0.206691 0 0 0
335 1 0.796176 0.193806 0.168651 0 0 0
336 1 0.803307 0.199937 0.248737 0 0 0
451 2 0.695312 0.0668471 0.13815 0 0 0
452 1 0.710239 0.0219342 0.157109 0 0 0
499 2 0.739391 0.202968 0.0882417 0 0 0
500 1 0.761682 0.193013 0.0434817 0 0 0
501 1 0.723072 0.157583 0.104769 0 0 0
532 2 0.859985 0.330563 0.244707 0 0 0
533 1 0.886399 0.318157 0.286514 0 0 0
534 1 0.849418 0.285884 0.222537 0 0 0
544 2 0.983438 0.142375 0.0196337 0 0 0
546 1 0.982243 0.146597 0.0704285 0 0 0
547 2 0.987371 0.183445 0.159488 0 0 0
548 1 0.945034 0.179957 0.18768 0 0 0
549 1 0.998255 0.23325 0.158877 0 0 0
616 2 0.849485 0.029642 0.182333 0 0 0
617 1 0.859874 0.0774914 0.196541 0 0 0
618 1 0.807565 0.0173226 0.208608 0 0 0
644 1 0.689298 0.0347985 0.0345929 0 0 1
67 2 0.0305699 0.660071 0.144605 0 0 0
133 2 0.153242 0.441022 0.276551 0 0 0
134 1 0.146838 0.479703 0.243961 0 0 0
135 1 0.136735 0.400024 0.251133 0 0 0
189 1 0.231915 0.382416 0.317303 0 0 0
209 1 0.00596452 0.365638 0.0269916 0 0 0
244 2 0.24572 0.637177 0.21806 0 0 0
245 1 0.204506 0.608402 0.209531 0 0 0
246 1 0.284574 0.609515 0.200045 0 0 0
289 2 0.034741 0.457853 0.0675304 0 0 0
290 1 0.0810531 0.472899 0.0826356 0 0 0
291 1 0.00858991 0.501188 0.0613987 0 0 0
328 2 0.140452 0.554652 0.180888 0 0 0
329 1 0.108109 0.594062 0.181395 0 0 0
330 1 0.165748 0.559443 0.136882 0 0 0
361 2 0.247541 0.552581 0.0609821 0 0 0
362 1 0.288359 0.546623 0.0909459 0 0 0
363 1 0.251667 0.515499 0.0262369 0 0 0
364 2 0.178014 0.415826 0.097377 0 0 0
365 1 0.182294 0.365371 0.103329 0 0 0
366 1 0.225524 0.43344 0.103027 0 0 0
407 1 0.156704 0.398027 0.00495303 0 0 1
439 2 0.296959 0.343244 0.00346111 0 0 0
468 1 0.206733 0.640405 0.0476922 0 0 0
519 1 0.0335788 0.346083 0.138346 0 0 0
52 2 0.596857 0.62355 0.284479 0 0 0
53 1 0.563925 0.648315 0.254452 0 0 0
54 1 0.624146 0.660449 0.306688 0 0 0
88 2 0.56305 0.471863 0.261497 0 0 0
89 1 0.51367 0.468334 0.273686 0 0 0
90 1 0.571172 0.521826 0.2554 0 0 0
190 2 0.65859 0.359698 0.261081 0 0 0
191 1 0.626678 0.398239 0.2513 0 0 0
222 1 0.408599 0.347233 0.120783 0 0 0
226 2 0.376497 0.424343 0.0970095 0 0 0
227 1 0.346227 0.400471 0.0636443 0 0 0
228 1 0.414256 0.44348 0.0685936 0 0 0
292 2 0.416298 0.531747 0.287023 0 0 0
293 1 0.440601 0.574919 0.299062 0 0 0
294 1 0.397592 0.514826 0.331331 0 0 0
341 1 0.364135 0.334565 0.305611 0 0 0
394 2 0.413945 0.6578 0.0329407 0 0 0
395 1 0.408355 0.625055 0.0716179 0 0 0
400 2 0.586535 0.607838 0.0651229 0 0 0
401 1 0.557293 0.631644 0.0994394 0 0 0
402 1 0.619661 0.580936 0.0930211 0 0 0
409 2 0.355768 0.552395 0.16614 0 0 0
410 1 0.378227 0.543553 0.211049 0 0 0
411 1 0.362431 0.509253 0.139801 0 0 0
415 2 0.489609 0.500397 0.0195416 0 0 0
416 1 0.517336 0.462308 5.27315e-05 0 0 0
417 1 0.524062 0.534411 0.0355235 0 0 0
83 1 0.794621 0.654607 0.302441 0 0 0
97 2 0.77769 0.555063 0.288317 0 0 0
98 1 0.744733 0.537058 0.253835 0 0 0
99 1 0.776755 0.52076 0.326024 0 0 0
118 2 0.680561 0.514513 0.128912 0 0 0
119 1 0.703962 0.46989 0.121124 0 0 0
120 1 0.71853 0.548226 0.133515 0 0 0
192 1 0.687776 0.356379 0.219409 0 0 0
256 2 0.721616 0.358195 0.123878 0 0 0
257 1 0.768912 0.374799 0.114564 0 0 0
274 2 0.842602 0.428035 0.0955405 0 0 0
275 1 0.838147 0.451014 0.0502467 0 0 0
276 1 0.880921 0.452527 0.118587 0 0 0
316 2 0.789342 0.623144 0.14493 0 0 0
317 1 0.774011 0.647714 0.186891 0 0 0
318 1 0.831699 0.598631 0.159228 0 0 0
484 2 0.928507 0.558884 0.170662 0 0 0
485 1 0.969089 0.589227 0.176306 0 0 0
486 1 0.929329 0.528668 0.211719 0 0 0
496 2 0.931272 0.574514 0.0192454 0 0 0
497 1 0.945914 0.622872 0.0124233 0 0 0
498 1 0.92121 0.571118 0.0691108 0 0 0
502 2 0.925761 0.464624 0.28519 0 0 0
503 1 0.905753 0.42376 0.262187 0 0 0
504 1 0.886895 0.484986 0.311156 0 0 0
518 1 0.959666 0.345652 0.17058 -1 0 0
68 1 0.0104781 0.686102 0.105642 0 0 0
69 1 0.0442748 0.695893 0.178196 0 0 0
137 1 0.000789908 0.899356 0.0261703 1 0 1
154 2 0.321316 0.924986 0.294115 0 0 0
155 1 0.311954 0.876172 0.282758 0 0 0
156 1 0.275805 0.944093 0.306887 0 0 0
310 2 0.0542954 0.948562 0.0976865 0 0 0
311 1 0.0734582 0.980463 0.0628373 0 0 0
312 1 0.0467979 0.977643 0.138887 0 0 0
327 1 0.325767 0.796028 0.146161 0 0 0
373 2 0.0547614 0.746963 0.255977 0 0 0
374 1 0.00543774 0.75986 0.255473 0 0 0
375 1 0.0795639 0.791036 0.249504 0 0 0
378 1 0.140329 0.893802 0.00361397 0 0 1
466 2 0.180912 0.684364 0.0471787 0 0 0
467 1 0.204214 0.713285 0.0821072 0 0 0
472 2 0.277361 0.744009 0.319477 0 0 0
474 1 0.271702 0.698248 0.297723 0 0 0
606 1 0.0144788 0.945462 0.323146 0 0 0
619 2 0.146191 0.864894 0.20573 0 0 0
620 1 0.118215 0.885177 0.168243 0 0 0
621 1 0.142167 0.898188 0.244132 0 0 0
637 2 0.28464 0.968665 0.145804 0 0 0
638 1 0.323623 0.953534 0.116636 0 0 0
639 1 0.298456 0.955953 0.193206 0 0 0
640 2 0.239977 0.761813 0.146051 0 0 0
641 1 0.206468 0.786768 0.175271 0 0 0
642 1 0.246091 0.7168 0.169201 0 0 0
125 1 0.603282 0.817162 0.318195 0 0 0
262 2 0.508349 0.686961 0.160034 0 0 0
263 1 0.526543 0.726602 0.133633 0 0 0
264 1 0.464208 0.703639 0.179341 0 0 0
286 2 0.453438 0.691295 0.307661 0 0 0
287 1 0.490036 0.720426 0.327942 0 0 0
288 1 0.411532 0.720274 0.309523 0 0 0
325 2 0.374779 0.809176 0.141223 0 0 0
326 1 0.3743 0.848217 0.108436 0 0 0
337 2 0.533824 0.812522 0.0699832 0 0 0
338 1 0.539213 0.801677 0.0204582 0 0 0
339 1 0.485895 0.798984 0.0808907 0 0 0
349 2 0.461481 0.946675 0.320046 0 0 0
350 1 0.475018 0.944658 0.270933 0 0 0
351 1 0.410946 0.939928 0.319664 0 0 0
379 2 0.386368 0.912385 0.0401718 0 0 0
380 1 0.428599 0.927772 0.016106 0 0 0
381 1 0.358693 0.889439 0.00401878 0 0 0
463 2 0.519693 0.930833 0.141526 0 0 0
464 1 0.567368 0.948863 0.142691 0 0 0
465 1 0.521384 0.892373 0.108099 0 0 0
82 2 0.8005 0.704812 0.295785 0 0 0
151 2 0.721924 0.936712 0.199456 0 0 0
152 1 0.713407 0.921281 0.247297 0 0 0
153 1 0.713118 0.89538 0.170934 0 0 0
157 2 0.706084 0.804018 0.122745 0 0 0
158 1 0.669146 0.803897 0.087603 0 0 0
159 1 0.745621 0.78143 0.0998106 0 0 0
280 2 0.897396 0.793119 0.240856 0 0 0
281 1 0.86318 0.758261 0.255471 0 0 0
282 1 0.876786 0.814718 0.199527 0 0 0
304 2 0.811627 0.734083 0.0564366 0 0 0
305 1 0.799576 0.695895 0.0879935 0 0 0
306 1 0.790833 0.720833 0.0118103 0 0 0
388 2 0.868569 0.871212 0.116003 0 0 0
389 1 0.853343 0.849188 0.072615 0 0 0
390 1 0.85802 0.920682 0.109614 0 0 0
481 2 0.957502 0.732272 0.037319 0 0 0
482 1 0.913255 0.735876 0.062392 0 0 0
483 1 0.966939 0.779699 0.0211634 0 0 0
631 2 0.932186 0.94792 0.276113 0 0 0
632 1 0.941519 0.911368 0.241816 0 0 0
633 1 0.895015 0.975868 0.255216 0 0 0
28 2 0.0918146 0.181747 0.632782 0 0 0
29 1 0.0822425 0.133946 0.647711 0 0 0
40 2 0.124768 0.314697 0.558652 0 0 0
41 1 0.161041 0.32875 0.591608 0 0 0
42 1 0.107979 0.269959 0.576431 0 0 0
61 2 0.23969 0.176081 0.631125 0 0 0
62 1 0.25789 0.221047 0.615433 0 0 0
63 1 0.189706 0.183985 0.637332 0 0 0
109 2 0.260431 0.328092 0.61101 0 0 0
169 2 0.284611 0.086469 0.45671 0 0 0
170 1 0.261005 0.128066 0.439051 0 0 0
171 1 0.314359 0.103673 0.494373 0 0 0
205 2 0.000398949 0.105438 0.487632 0 0 0
207 1 0.0400584 0.0798952 0.506974 0 0 0
217 2 0.204777 0.241718 0.446977 0 0 0
218 1 0.186668 0.267153 0.487282 0 0 0
219 1 0.164176 0.217563 0.427808 0 0 0
238 2 0.0617422 0.184293 0.389264 0 0 0
239 1 0.0465454 0.164882 0.433891 0 0 0
240 1 0.058434 0.145307 0.356576 0 0 0
299 1 0.191131 0.0169785 0.362698 0 0 0
372 1 0.241162 0.00253804 0.468312 0 1 0
535 2 0.107898 0.0312911 0.544857 0 0 0
536 1 0.142393 0.00198196 0.521394 0 0 0
537 1 0.130279 0.0448372 0.588617 0 0 0
31 2 0.562662 0.299012 0.520993 0 0 0
32 1 0.582715 0.252523 0.514994 0 0 0
33 1 0.557439 0.316902 0.473538 0 0 0
45 1 0.376376 0.329092 0.500657 0 0 0
76 2 0.435851 0.0422939 0.43535 0 0 0
77 1 0.45223 0.0127158 0.397189 0 0 0
78 1 0.386319 0.0494552 0.425619 0 0 0
184 2 0.393142 0.115484 0.555726 0 0 0
185 1 0.408973 0.163756 0.551423 0 0 0
186 1 0.42236 0.0894843 0.52302 0 0 0
196 2 0.584365 0.287065 0.369225 0 0 0
198 1 0.60363 0.240255 0.375321 0 0 0
214 2 0.425811 0.247969 0.502402 0 0 0
215 1 0.426003 0.224479 0.457152 0 0 0
216 1 0.473489 0.265105 0.508112 0 0 0
223 2 0.640192 0.182877 0.556042 0 0 0
224 1 0.641111 0.206892 0.601007 0 0 0
225 1 0.626959 0.134969 0.567406 0 0 0
346 2 0.616603 0.135167 0.35878 0 0 0
428 1 0.40732 0.101016 0.649465 0 0 0
578 1 0.628285 0.0259908 0.652872 0 0 0
595 2 0.55486 0.0570688 0.607171 0 0 0
596 1 0.513164 0.0823453 0.622068 0 0 0
597 1 0.539216 0.00889085 0.601383 0 0 0
610 2 0.442229 0.185898 0.368101 0 0 0
611 1 0.398949 0.16596 0.349969 0 0 0
612 1 0.469083 0.145657 0.384193 0 0 0
615 1 0.642598 0.0382596 0.422201 0 0 0
37 2 0.764129 0.165588 0.357624 0 0 0
38 1 0.807857 0.13947 0.35989 0 0 0
39 1 0.765908 0.197001 0.397741 0 0 0
58 2 0.776707 0.268922 0.505312 0 0 0
59 1 0.739186 0.284288 0.536221 0 0 0
60 1 0.795947 0.312067 0.486135 0 0 0
73 2 0.940159 0.239386 0.526134 0 0 0
74 1 0.88969 0.241192 0.533141 0 0 0
75 1 0.957469 0.282738 0.546637 0 0 0
206 1 0.985022 0.135814 0.525583 -1 0 0
348 1 0.667121 0.137718 0.365163 0 0 0
538 2 0.936084 0.257916 0.379666 0 0 0
539 1 0.930221 0.249692 0.42964 0 0 0
540 1 0.976605 0.229797 0.366752 0 0 0
577 2 0.674838 0.00822665 0.663669 0 0 0
584 1 0.829355 0.00585746 0.556274 0 1 0
598 2 0.797324 0.0944768 0.503035 0 0 0
599 1 0.820803 0.0915211 0.457876 0 0 0
600 1 0.782983 0.143256 0.506818 0 0 0
601 2 0.896601 0.0748505 0.397086 0 0 0
602 1 0.893343 0.0245756 0.389262 0 0 0
603 1 0.938104 0.0806036 0.426134 0 0 0
613 2 0.682051 0.00822132 0.434058 0 0 0
614 1 0.714165 0.0386895 0.459351 0 0 0
7 2 0.218851 0.556237 0.555278 0 0 0
8 1 0.174561 0.542648 0.576565 0 0 0
9 1 0.251241 0.560023 0.594469 0 0 0
19 2 0.025635 0.426312 0.537605 0 0 0
20 1 0.0560813 0.385417 0.537624 0 0 0
21 1 0.025643 0.442232 0.48917 0 0 0
55 2 0.323248 0.598388 0.640196 0 0 0
57 1 0.332659 0.626414 0.598659 0 0 0
103 2 0.328989 0.499905 0.409677 0 0 0
104 1 0.307455 0.461966 0.383289 0 0 0
110 1 0.289804 0.333926 0.569748 0 0 0
111 1 0.287827 0.348 0.649121 0 0 0
139 2 0.0274609 0.60995 0.585849 0 0 0
140 1 0.0316176 0.617134 0.535545 0 0 0
141 1 0.0601741 0.572217 0.596119 0 0 0
187 2 0.273501 0.359361 0.335701 0 0 0
188 1 0.261468 0.347841 0.383887 0 0 0
259 2 0.24805 0.619496 0.411828 0 0 0
260 1 0.275634 0.576715 0.408936 0 0 0
261 1 0.223996 0.616189 0.45666 0 0 0
487 2 0.0496715 0.480255 0.39601 0 0 0
488 1 0.0147771 0.465936 0.361706 0 0 0
489 1 0.0942957 0.47442 0.372052 0 0 0
491 1 0.00184507 0.562705 0.407037 1 0 0
492 1 0.0161896 0.641119 0.419188 1 0 0
505 2 0.104938 0.500775 0.637847 0 0 0
507 1 0.0746348 0.460117 0.632557 0 0 0
1 2 0.63706 0.444921 0.408349 0 0 0
2 1 0.632768 0.396209 0.393923 0 0 0
3 1 0.615033 0.471378 0.370743 0 0 0
4 2 0.537553 0.53962 0.508534 0 0 0
5 1 0.496231 0.514055 0.523973 0 0 0
6 1 0.572243 0.50343 0.499246 0 0 0
26 1 0.504088 0.632018 0.500328 0 0 0
43 2 0.348075 0.37045 0.510035 0 0 0
44 1 0.375124 0.396981 0.544151 0 0 0
105 1 0.333587 0.481546 0.457018 0 0 0
107 1 0.338097 0.664028 0.488758 0 0 0
211 2 0.615552 0.42505 0.587346 0 0 0
212 1 0.576569 0.452144 0.605935 0 0 0
213 1 0.594376 0.381532 0.571307 0 0 0
235 2 0.441833 0.46423 0.59543 0 0 0
236 1 0.461382 0.438976 0.635173 0 0 0
237 1 0.43174 0.510792 0.613585 0 0 0
283 2 0.661896 0.650826 0.445773 0 0 0
285 1 0.614823 0.633485 0.454872 0 0 0
85 2 0.699511 0.607944 0.628114 0 0 0
86 1 0.721716 0.596546 0.583656 0 0 0
87 1 0.738073 0.621648 0.65852 0 0 0
94 2 0.909703 0.522654 0.632994 0 0 0
95 1 0.865593 0.526345 0.607695 0 0 0
96 1 0.941398 0.553836 0.608044 0 0 0
247 2 0.818779 0.583728 0.5266 0 0 0
248 1 0.857124 0.610122 0.505806 0 0 0
249 1 0.808029 0.547604 0.492265 0 0 0
284 1 0.680665 0.619017 0.410626 0 0 0
358 2 0.781345 0.462993 0.403983 0 0 0
359 1 0.731225 0.463793 0.413292 0 0 0
360 1 0.798092 0.421106 0.42774 0 0 0
490 2 0.98209 0.604425 0.428684 0 0 0
520 2 0.88715 0.37012 0.461 0 0 0
521 1 0.915047 0.343822 0.427392 0 0 0
522 1 0.918359 0.377313 0.500669 0 0 0
523 2 0.896682 0.374594 0.648594 0 0 0
524 1 0.846096 0.372802 0.654693 0 0 0
525 1 0.906339 0.423065 0.636076 0 0 0
13 2 0.217792 0.771105 0.565707 0 0 0
14 1 0.233921 0.723688 0.556174 0 0 0
15 1 0.25744 0.800774 0.553575 0 0 0
142 2 0.093762 0.7005 0.394663 0 0 0
143 1 0.0720733 0.708035 0.349142 0 0 0
144 1 0.141236 0.685374 0.383857 0 0 0
370 2 0.220704 0.956433 0.475737 0 0 0
371 1 0.259919 0.927219 0.490163 0 0 0
469 2 0.0325487 0.832912 0.444105 0 0 0
470 1 0.0501423 0.786685 0.43174 0 0 0
471 1 0.0554043 0.843877 0.48834 0 0 0
473 1 0.261358 0.737431 0.367436 0 0 0
475 2 0.0585964 0.879096 0.589951 0 0 0
476 1 0.0353248 0.888687 0.634289 0 0 0
477 1 0.0888377 0.919441 0.582396 0 0 0
588 1 0.155334 0.778782 0.65715 0 0 0
604 2 0.0606349 0.934493 0.34182 0 0 0
605 1 0.0516971 0.900781 0.379008 0 0 0
22 2 0.550713 0.896054 0.423329 0 0 0
23 1 0.51775 0.920329 0.392938 0 0 0
24 1 0.596263 0.904317 0.401968 0 0 0
25 2 0.507773 0.682139 0.508908 0 0 0
27 1 0.548359 0.686941 0.539389 0 0 0
106 2 0.353926 0.696277 0.524936 0 0 0
108 1 0.404526 0.698287 0.51902 0 0 0
124 2 0.579867 0.777616 0.340271 0 0 0
126 1 0.576602 0.790541 0.389481 0 0 0
297 1 0.558311 0.784724 0.647957 0 0 0
301 2 0.606795 0.718911 0.603783 0 0 0
302 1 0.641003 0.681589 0.609814 0 0 0
303 1 0.634755 0.760448 0.594179 0 0 0
560 1 0.364598 0.838294 0.631244 0 0 0
589 2 0.344081 0.875746 0.532253 0 0 0
590 1 0.371592 0.843188 0.50428 0 0 0
591 1 0.378688 0.902531 0.558411 0 0 0
592 2 0.49 0.923196 0.576297 0 0 0
593 1 0.505329 0.909637 0.5296 0 0 0
594 1 0.517289 0.893781 0.607753 0 0 0
10 2 0.751714 0.774302 0.443548 0 0 0
11 1 0.727114 0.733221 0.461056 0 0 0
12 1 0.794994 0.77572 0.470459 0 0 0
70 2 0.862797 0.781191 0.625835 0 0 0
71 1 0.826383 0.816874 0.625392 0 0 0
72 1 0.891529 0.791741 0.585061 0 0 0
79 2 0.731548 0.879432 0.557365 0 0 0
80 1 0.732225 0.857926 0.511144 0 0 0
81 1 0.70212 0.920698 0.551833 0 0 0
84 1 0.800331 0.724071 0.342992 0 0 0
160 2 0.682914 0.89064 0.339789 0 0 0
161 1 0.707186 0.849037 0.356506 0 0 0
162 1 0.700984 0.928493 0.368771 0 0 0
367 2 0.88801 0.844944 0.493222 0 0 0
368 1 0.894654 0.888787 0.518384 0 0 0
369 1 0.934167 0.833709 0.474709 0 0 0
550 2 0.824481 0.931229 0.372216 0 0 0
551 1 0.856221 0.914102 0.33618 0 0 0
552 1 0.838213 0.906044 0.414365 0 0 0
583 2 0.853841 0.965825 0.576206 0 0 0
585 1 0.820351 0.92751 0.573089 0 0 0
30 1 0.070403 0.210892 0.66872 0 0 0
48 1 0.00678692 0.310025 0.739339 1 0 0
49 2 0.256653 0.0849467 0.737278 0 0 0
50 1 0.256751 0.112497 0.694379 0 0 0
51 1 0.212467 0.0595408 0.736053 0 0 0
199 2 0.144122 0.216076 0.805459 0 0 0
200 1 0.123153 0.261219 0.8165 0 0 0
201 1 0.107467 0.182127 0.815625 0 0 0
313 2 0.0381526 0.111114 0.816092 0 0 0
314 1 0.000113985 0.12175 0.84833 0 0 0
315 1 0.0604969 0.0697782 0.835878 0 0 0
413 1 0.22966 0.312107 0.814867 0 0 0
424 2 0.28386 0.176664 0.852546 0 0 0
425 1 0.278837 0.143751 0.813934 0 0 0
426 1 0.252953 0.215367 0.840455 0 0 0
455 1 0.249067 0.189141 0.954443 0 0 -1
531 1 0.138964 0.0566305 0.97077 0 0 -1
553 2 0.0947521 0.0395774 0.690935 0 0 0
554 1 0.0761885 0.0638861 0.731726 0 0 0
571 2 0.130549 0.0144165 0.86538 0 0 0
572 1 0.159754 0.00476554 0.824718 0 0 0
635 1 0.328718 0.0757342 0.915435 0 0 0
172 2 0.512954 0.23917 0.755178 0 0 0
173 1 0.488342 0.250265 0.798428 0 0 0
174 1 0.491531 0.195809 0.739042 0 0 0
202 2 0.494307 0.220523 0.968962 0 0 0
204 1 0.533894 0.235622 0.997322 0 0 0
331 2 0.650364 0.24386 0.696255 0 0 0
333 1 0.604548 0.247066 0.71839 0 0 0
427 2 0.431197 0.0998213 0.694497 0 0 0
429 1 0.397455 0.0786168 0.726297 0 0 0
445 2 0.405056 0.268626 0.868277 0 0 0
446 1 0.43648 0.252198 0.904912 0 0 0
447 1 0.361487 0.243483 0.876586 0 0 0
448 2 0.661754 0.248203 0.880704 0 0 0
449 1 0.625084 0.21295 0.877242 0 0 0
458 1 0.486527 0.0233883 0.81716 0 1 0
562 2 0.494898 0.103025 0.878528 0 0 0
563 1 0.491643 0.134567 0.918452 0 0 0
564 1 0.544969 0.0973046 0.870807 0 0 0
565 2 0.63538 0.0847561 0.859312 0 0 0
567 1 0.664407 0.058915 0.892314 0 0 0
630 1 0.492785 0.0163452 0.943043 0 1 0
634 2 0.343715 0.0489231 0.956124 0 0 0
636 1 0.364061 0.00642739 0.936641 0 0 0
46 2 0.99263 0.273004 0.707269 0 0 0
47 1 0.95509 0.29368 0.679652 0 0 0
102 1 0.708993 0.320326 0.673109 0 0 0
163 2 0.935795 0.301 0.890137 0 0 0
164 1 0.903006 0.328056 0.86199 0 0 0
165 1 0.918731 0.253053 0.88708 0 0 0
175 2 0.779298 0.3042 0.815349 0 0 0
176 1 0.73399 0.288251 0.832441 0 0 0
177 1 0.770786 0.317207 0.766792 0 0 0
210 1 0.991628 0.307815 0.972648 -1 0 -1
229 2 0.822732 0.045094 0.867032 0 0 0
230 1 0.84002 0.00615627 0.895038 0 0 0
231 1 0.82463 0.0281224 0.818993 0 0 0
332 1 0.66997 0.200158 0.713723 0 0 0
355 2 0.87231 0.183712 0.753068 0 0 0
356 1 0.845537 0.223156 0.771145 0 0 0
357 1 0.915756 0.2044 0.73622 0 0 0
450 1 0.700136 0.224438 0.904398 0 0 0
514 2 0.810112 0.164896 0.946301 0 0 0
515 1 0.856826 0.16534 0.966722 0 0 0
516 1 0.810756 0.125645 0.913769 0 0 0
541 2 0.848016 0.0416318 0.723662 0 0 0
542 1 0.881957 0.0743046 0.743153 0 0 0
543 1 0.855872 0.043553 0.673323 0 0 0
566 1 0.668087 0.10169 0.824057 0 0 0
580 2 0.72316 0.125785 0.737396 0 0 0
581 1 0.705654 0.0823842 0.717165 0 0 0
582 1 0.773666 0.123494 0.730822 0 0 0
643 2 0.695341 0.0177828 0.986913 0 0 0
645 1 0.738856 0.039155 0.971132 0 0 0
56 1 0.305508 0.631778 0.674397 0 0 0
121 2 0.243081 0.515685 0.803322 0 0 0
122 1 0.235666 0.562147 0.822962 0 0 0
123 1 0.19611 0.497431 0.795588 0 0 0
166 2 0.030441 0.66542 0.72111 0 0 0
167 1 0.0391289 0.640414 0.677537 0 0 0
168 1 0.0552222 0.638381 0.756525 0 0 0
232 2 0.114273 0.632137 0.836139 0 0 0
233 1 0.0937923 0.598015 0.868007 0 0 0
241 2 0.324116 0.413143 0.71892 0 0 0
242 1 0.307908 0.459973 0.730906 0 0 0
265 2 0.114061 0.457899 0.780021 0 0 0
266 1 0.0949663 0.493341 0.811305 0 0 0
267 1 0.098373 0.413603 0.799795 0 0 0
268 2 0.284577 0.482317 0.933632 0 0 0
269 1 0.268598 0.490078 0.885843 0 0 0
270 1 0.32565 0.452517 0.928697 0 0 0
391 2 0.0462956 0.512846 0.90889 0 0 0
392 1 0.073136 0.481992 0.939336 0 0 0
393 1 0.00692008 0.527974 0.937526 0 0 0
406 2 0.154545 0.413932 0.956561 0 0 0
408 1 0.200062 0.435278 0.948079 0 0 0
412 2 0.257908 0.338255 0.848299 0 0 0
414 1 0.293532 0.361075 0.819845 0 0 0
441 1 0.287862 0.338628 0.953508 0 0 -1
506 1 0.124502 0.496127 0.684699 0 0 0
511 2 0.0810542 0.336237 0.845889 0 0 0
512 1 0.0334153 0.334463 0.863965 0 0 0
513 1 0.109804 0.34682 0.886642 0 0 0
178 2 0.624564 0.384105 0.927197 0 0 0
179 1 0.641893 0.339703 0.909099 0 0 0
180 1 0.666538 0.411955 0.935071 0 0 0
193 2 0.403462 0.407222 0.903818 0 0 0
194 1 0.398367 0.357125 0.89583 0 0 0
195 1 0.448374 0.41902 0.882768 0 0 0
243 1 0.374964 0.416338 0.720823 0 0 0
253 2 0.572799 0.587505 0.840161 0 0 0
254 1 0.569269 0.538479 0.826619 0 0 0
255 1 0.539269 0.592701 0.878216 0 0 0
343 2 0.488452 0.385221 0.708175 0 0 0
344 1 0.515005 0.410499 0.743606 0 0 0
345 1 0.496031 0.336024 0.719201 0 0 0
396 1 0.405019 0.629921 0.991198 0 0 -1
397 2 0.42201 0.587794 0.884044 0 0 0
398 1 0.38124 0.618075 0.879542 0 0 0
399 1 0.431683 0.572221 0.836471 0 0 0
430 2 0.452819 0.573629 0.727587 0 0 0
431 1 0.475127 0.618546 0.718406 0 0 0
432 1 0.403863 0.580937 0.715373 0 0 0
433 2 0.577265 0.452806 0.801293 0 0 0
434 1 0.583637 0.421066 0.840682 0 0 0
435 1 0.62304 0.454775 0.778929 0 0 0
100 2 0.748004 0.351512 0.683355 0 0 0
101 1 0.726012 0.395475 0.696884 0 0 0
277 2 0.899989 0.558891 0.792076 0 0 0
278 1 0.861363 0.590471 0.78158 0 0 0
279 1 0.928089 0.558484 0.749535 0 0 0
418 2 0.731843 0.576183 0.835735 0 0 0
419 1 0.753899 0.584413 0.880959 0 0 0
420 1 0.682046 0.582869 0.844395 0 0 0
421 2 0.756995 0.43448 0.942472 0 0 0
422 1 0.787999 0.394278 0.937787 0 0 0
423 1 0.766379 0.462749 0.901094 0 0 0
436 2 0.701839 0.482299 0.725458 0 0 0
437 1 0.673796 0.510223 0.693315 0 0 0
438 1 0.720116 0.516001 0.759067 0 0 0
508 2 0.893268 0.419198 0.798334 0 0 0
509 1 0.880943 0.407015 0.750386 0 0 0
510 1 0.907141 0.468199 0.79591 0 0 0
64 2 0.281272 0.703216 0.736867 0 0 0
65 1 0.314157 0.739174 0.721869 0 0 0
66 1 0.235428 0.72499 0.732006 0 0 0
115 2 0.305554 0.682331 0.879184 0 0 0
116 1 0.257768 0.694262 0.892358 0 0 0
117 1 0.306901 0.688909 0.828644 0 0 0
129 1 0.330144 0.782709 0.912283 0 0 0
138 1 0.00849989 0.870245 0.951369 1 0 0
234 1 0.13085 0.669615 0.866472 0 0 0
319 2 0.0534532 0.856174 0.868645 0 0 0
320 1 0.0592649 0.806078 0.861163 0 0 0
321 1 0.0187282 0.870315 0.834097 0 0 0
376 2 0.16775 0.913001 0.965158 0 0 0
377 1 0.210429 0.93011 0.987185 0 0 0
443 1 0.309691 0.948071 0.77002 0 0 0
555 1 0.0771095 0.991944 0.695316 0 -1 0
556 2 0.180318 0.741171 0.912798 0 0 0
557 1 0.178025 0.721425 0.959747 0 0 0
558 1 0.187301 0.79112 0.920264 0 0 0
573 1 0.13404 0.972306 0.89391 0 -1 0
574 2 0.171732 0.898099 0.759385 0 0 0
575 1 0.140094 0.891093 0.798747 0 0 0
576 1 0.171326 0.85356 0.734575 0 0 0
586 2 0.152089 0.757792 0.7035 0 0 0
587 1 0.113388 0.724797 0.69991 0 0 0
127 2 0.338852 0.83219 0.920957 0 0 0
128 1 0.337336 0.853724 0.874768 0 0 0
148 2 0.616704 0.921503 0.762544 0 0 0
149 1 0.644106 0.916752 0.805274 0 0 0
150 1 0.571797 0.939931 0.778139 0 0 0
271 2 0.569159 0.73782 0.826865 0 0 0
272 1 0.569929 0.688183 0.815247 0 0 0
273 1 0.531475 0.742399 0.8609 0 0 0
295 2 0.538979 0.825266 0.672082 0 0 0
296 1 0.573293 0.836236 0.70816 0 0 0
309 1 0.652272 0.754532 0.78666 0 0 0
322 2 0.479101 0.764112 0.943205 0 0 0
323 1 0.46204 0.725811 0.972211 0 0 0
324 1 0.443192 0.800092 0.947125 0 0 0
382 2 0.638417 0.705696 0.962364 0 0 0
383 1 0.606129 0.70693 0.922925 0 0 0
384 1 0.622193 0.666723 0.990951 0 0 0
442 2 0.338341 0.909475 0.787018 0 0 0
444 1 0.351838 0.884071 0.744925 0 0 0
457 2 0.490476 0.975263 0.800796 0 0 0
459 1 0.442425 0.958282 0.799315 0 0 0
559 2 0.377427 0.824048 0.678487 0 0 0
561 1 0.42751 0.833133 0.681421 0 0 0
628 2 0.493581 0.972285 0.968684 0 0 0
629 1 0.542943 0.959738 0.971007 0 0 0
112 2 0.784756 0.8866 0.720006 0 0 0
113 1 0.759353 0.929596 0.70974 0 0 0
114 1 0.748333 0.851863 0.728135 0 0 0
136 2 0.975438 0.873881 0.990009 0 0 0
145 2 0.943657 0.724276 0.838739 0 0 0
146 1 0.950384 0.711556 0.789828 0 0 0
147 1 0.945901 0.679985 0.863891 0 0 0
307 2 0.701273 0.761495 0.774421 0 0 0
308 1 0.71915 0.792743 0.810523 0 0 0
385 2 0.714586 0.904267 0.888376 0 0 0
386 1 0.765303 0.899782 0.885714 0 0 0
387 1 0.706747 0.939643 0.924243 0 0 0
403 2 0.802441 0.679969 0.913739 0 0 0
404 1 0.841907 0.69795 0.886934 0 0 0
405 1 0.761814 0.688982 0.884283 0 0 0
478 2 0.891446 0.852554 0.818333 0 0 0
479 1 0.859498 0.855711 0.778725 0 0 0
480 1 0.898338 0.802512 0.825241 0 0 0
493 2 0.821413 0.678125 0.717004 0 0 0
494 1 0.778055 0.701013 0.73099 0 0 0
495 1 0.843114 0.710714 0.684348 0 0 0
568 2 0.977204 0.931611 0.721155 0 0 0
569 1 0.950882 0.952751 0.682949 0 0 0
570 1 0.944784 0.898317 0.742126 0 0 0
579 1 0.669037 0.98305 0.707622 0 -1 0
646 2 0.843408 0.931111 0.959315 0 0 0
647 1 0.885621 0.904741 0.948268 0 0 0
648 1 0.859031 0.967278 0.991676 0 0 0
ITEM: TIMESTEP
25
ITEM: NUMBER OF ATOMS
648
ITEM: BOX BOUNDS pp pp pp
0.0000000000000000e+00 1.8774349999999998e+01
0.0000000000000000e+00 1.8774349999999998e+01
0.0000000000000000e+00 1.8774349999999998e+01
ITEM: ATOMS id type xs ys zs ix iy iz
16 2 0.134402 0.288401 0.223659 0 0 0
17 1 0.08425 0.306388 0.220657 0 0 0
18 1 0.151445 0.275731 0.174732 0 0 0
34 2 0.250097 0.212575 0.278955 0 0 0
35 1 0.258196 0.261941 0.297455 0 0 0
36 1 0.199446 0.207981 0.262909 0 0 0
208 2 0.0109186 0.315898 0.0188314 0 0 0
298 2 0.198404 0.017756 0.312562 0 0 0
300 1 0.153297 0.0353994 0.290191 0 0 0
352 2 0.305679 0.220432 0.142075 0 0 0
354 1 0.284616 0.235298 0.188763 0 0 0
440 1 0.286291 0.295143 0.025372 0 0 0
454 2 0.233814 0.189941 0.00228089 0 0 0
456 1 0.272879 0.169433 0.0322509 0 0 0
517 2 0.00762513 0.33165 0.179323 0 0 0
526 2 0.143891 0.281716 0.0685024 0 0 0
527 1 0.183345 0.25627 0.0431204 0 0 0
528 1 0.101774 0.285865 0.0359658 0 0 0
529 2 0.124166 0.0712593 0.0168334 0 0 0
530 1 0.163255 0.101301 0.0372414 0 0 0
545 1 0.0344829 0.134488 0.00603581 1 0 0
607 2 0.0942262 0.0737181 0.209024 0 0 0
608 1 0.13688 0.0777868 0.177222 0 0 0
609 1 0.0662158 0.11904 0.206778 0 0 0
622 2 0.220321 0.101183 0.131416 0 0 0
623 1 0.24781 0.055987 0.124371 0 0 0
624 1 0.254074 0.140653 0.1437 0 0 0
626 1 0.303535 0.0472617 0.303248 0 0 0
627 1 0.308479 0.131268 0.281429 0 0 0
91 2 0.562322 0.272569 0.10003 0 0 0
92 1 0.510185 0.280757 0.107997 0 0 0
93 1 0.58246 0.31313 0.0718977 0 0 0
181 2 0.449847 0.0660779 0.183934 0 0 0
182 1 0.415761 0.0678544 0.224933 0 0 0
183 1 0.447591 0.0179587 0.161031 0 0 0
197 1 0.605245 0.306633 0.323943 0 0 0
203 1 0.454724 0.208361 0.00338322 0 0 1
220 2 0.428598 0.300965 0.129931 0 0 0
221 1 0.436327 0.297312 0.182612 0 0 0
250 2 0.577108 0.125451 0.21429 0 0 0
251 1 0.532535 0.0962653 0.211068 0 0 0
252 1 0.568543 0.173016 0.191725 0 0 0
340 2 0.401896 0.309348 0.282074 0 0 0
342 1 0.419621 0.272306 0.316115 0 0 0
347 1 0.607208 0.135666 0.306304 0 0 0
353 1 0.353916 0.242598 0.136624 0 0 0
453 1 0.652023 0.0820445 0.165813 0 0 0
460 2 0.40481 0.132354 0.0549086 0 0 0
461 1 0.384458 0.0959862 0.021565 0 0 0
462 1 0.416465 0.109073 0.101485 0 0 0
625 2 0.336863 0.0877752 0.293629 0 0 0
130 2 0.871225 0.0488244 0.0391057 0 0 0
131 1 0.852944 0.0518511 0.0891373 0 0 0
132 1 0.914096 0.0802004 0.03402 0 0 0
258 1 0.718105 0.309063 0.102944 0 0 0
334 2 0.829559 0.188516 0.206785 0 0 0
335 1 0.796169 0.193744 0.165478 0 0 0
336 1 0.803443 0.199358 0.25202 0 0 0
451 2 0.694868 0.0666431 0.137962 0 0 0
452 1 0.71208 0.0197202 0.156715 0 0 0
499 2 0.74043 0.202419 0.0884927 0 0 0
500 1 0.762959 0.194403 0.040815 0 0 0
501 1 0.720953 0.156238 0.106791 0 0 0
532 2 0.861316 0.33052 0.244689 0 0 0
533 1 0.887751 0.318973 0.289524 0 0 0
534 1 0.847842 0.285187 0.22004 0 0 0
544 2 0.983454 0.141361 0.019973 0 0 0
546 1 0.98056 0.148333 0.0727922 0 0 0
547 2 0.987152 0.183419 0.160073 0 0 0
548 1 0.942535 0.178035 0.188768 0 0 0
549 1 1.00048 0.235019 0.157759 0 0 0
616 2 0.849541 0.0299893 0.183018 0 0 0
617 1 0.861313 0.0802375 0.196412 0 0 0
618 1 0.805229 0.0147843 0.208497 0 0 0
644 1 0.687355 0.0342734 0.0369739 0 0 1
67 2 0.0306237 0.660084 0.144745 0 0 0
133 2 0.153041 0.440929 0.276551 0 0 0
134 1 0.147547 0.482715 0.243807 0 0 0
135 1 0.136583 0.396759 0.251618 0 0 0
189 1 0.230761 0.383933 0.314745 0 0 0
209 1 0.00679679 0.368076 0.0291299 0 0 0
244 2 0.246312 0.637299 0.217702 0 0 0
245 1 0.201993 0.608402 0.210713 0 0 0
246 1 0.288331 0.609552 0.199977 0 0 0
289 2 0.0343524 0.45799 0.0674266 0 0 0
290 1 0.0835474 0.470916 0.0835094 0 0 0
291 1 0.00574948 0.502454 0.0605125 0 0 0
328 2 0.140119 0.555019 0.180636 0 0 0
329 1 0.105064 0.595195 0.182261 0 0 0
330 1 0.167668 0.557461 0.135012 0 0 0
361 2 0.246871 0.551872 0.061803 0 0 0
362 1 0.289793 0.548741 0.0933382 0 0 0
363 1 0.250855 0.515531 0.0229293 0 0 0
364 2 0.17823 0.416109 0.098584 0 0 0
365 1 0.180102 0.362971 0.102869 0 0 0
366 1 0.227458 0.436001 0.103305 0 0 0
407 1 0.154543 0.397269 0.00708015 0 0 1
439 2 0.296813 0.342704 0.00372549 0 0 0
468 1 0.206795 0.63717 0.0463554 0 0 0
519 1 0.0360655 0.346351 0.136688 0 0 0
52 2 0.59722 0.623709 0.283953 0 0 0
53 1 0.56134 0.647392 0.252392 0 0 0
54 1 0.626021 0.661048 0.30881 0 0 0
88 2 0.563139 0.472216 0.262605 0 0 0
89 1 0.511329 0.46636 0.273771 0 0 0
90 1 0.573701 0.523885 0.254615 0 0 0
190 2 0.658522 0.359861 0.260951 0 0 0
191 1 0.624095 0.399834 0.252863 0 0 0
222 1 0.407902 0.348827 0.118527 0 0 0